
                                 *****************
                                 * O   R   C   A *
                                 *****************

           --- An Ab Initio, DFT and Semiempirical electronic structure package ---

                  #######################################################
                  #                        -***-                        #
                  #          Department of theory and spectroscopy      #
                  #               Directorship: Frank Neese             #
                  #        Max Planck Institute fuer Kohlenforschung    #
                  #                Kaiser Wilhelm Platz 1               #
                  #                 D-45470 Muelheim/Ruhr               #
                  #                      Germany                        #
                  #                                                     #
                  #                  All rights reserved                #
                  #                        -***-                        #
                  #######################################################


                         Program Version 4.2.0 -  RELEASE  -


 With contributions from (in alphabetic order):
   Daniel Aravena         : Magnetic Suceptibility
   Michael Atanasov       : Ab Initio Ligand Field Theory (pilot matlab implementation)
   Alexander A. Auer      : GIAO ZORA, VPT2
   Ute Becker             : Parallelization
   Giovanni Bistoni       : ED, misc. LED, open-shell LED, HFLED
   Martin Brehm           : Molecular dynamics
   Dmytro Bykov           : SCF Hessian
   Vijay G. Chilkuri      : MRCI spin determinant printing, contributions to CSF-ICE
   Dipayan Datta          : RHF DLPNO-CCSD density
   Achintya Kumar Dutta   : EOM-CC, STEOM-CC
   Dmitry Ganyushin       : Spin-Orbit,Spin-Spin,Magnetic field MRCI
   Miquel Garcia          : C-PCM Hessian, Gaussian charge scheme
   Yang Guo               : DLPNO-NEVPT2, CIM, IAO-localization
   Andreas Hansen         : Spin unrestricted coupled pair/coupled cluster methods
   Benjamin Helmich-Paris : CASSCF linear response (MC-RPA)
   Lee Huntington         : MR-EOM, pCC
   Robert Izsak           : Overlap fitted RIJCOSX, COSX-SCS-MP3, EOM
   Christian Kollmar      : KDIIS, OOCD, Brueckner-CCSD(T), CCSD density
   Simone Kossmann        : Meta GGA functionals, TD-DFT gradient, OOMP2, MP2 Hessian
   Martin Krupicka        : AUTO-CI
   Lucas Lang             : DCDCAS
   Dagmar Lenk            : GEPOL surface, SMD
   Dimitrios Liakos       : Extrapolation schemes; Compound Job, initial MDCI parallelization
   Dimitrios Manganas     : Further ROCIS development; embedding schemes
   Dimitrios Pantazis     : SARC Basis sets
   Taras Petrenko         : DFT Hessian,TD-DFT gradient, ASA, ECA, R-Raman, ABS, FL, XAS/XES, NRVS
   Peter Pinski           : DLPNO-MP2, DLPNO-MP2 Gradient
   Christoph Reimann      : Effective Core Potentials
   Marius Retegan         : Local ZFS, SOC
   Christoph Riplinger    : Optimizer, TS searches, QM/MM, DLPNO-CCSD(T), (RO)-DLPNO pert. Triples
   Tobias Risthaus        : Range-separated hybrids, TD-DFT gradient, RPA, STAB
   Michael Roemelt        : Original ROCIS implementation
   Masaaki Saitow         : Open-shell DLPNO-CCSD energy and density
   Barbara Sandhoefer     : DKH picture change effects
   Avijit Sen             : IP-ROCIS
   Kantharuban Sivalingam : CASSCF convergence, NEVPT2, FIC-MRCI
   Bernardo de Souza      : ESD, SOC TD-DFT
   Georgi Stoychev        : AutoAux, RI-MP2 NMR
   Willem Van den Heuvel  : Paramagnetic NMR
   Boris Wezisla          : Elementary symmetry handling
   Frank Wennmohs         : Technical directorship


 We gratefully acknowledge several colleagues who have allowed us to
 interface, adapt or use parts of their codes:
   Stefan Grimme, W. Hujo, H. Kruse,             : VdW corrections, initial TS optimization,
                  C. Bannwarth                     DFT functionals, gCP, sTDA/sTD-DF
   Ed Valeev, F. Pavosevic, A. Kumar             : LibInt (2-el integral package), F12 methods
   Garnet Chan, S. Sharma, J. Yang, R. Olivares  : DMRG
   Ulf Ekstrom                                   : XCFun DFT Library
   Mihaly Kallay                                 : mrcc  (arbitrary order and MRCC methods)
   Andreas Klamt, Michael Diedenhofen            : otool_cosmo (COSMO solvation model)
   Jiri Pittner, Ondrej Demel                    : Mk-CCSD
   Frank Weinhold                                : gennbo (NPA and NBO analysis)
   Christopher J. Cramer and Donald G. Truhlar   : smd solvation model
   Lars Goerigk                                  : TD-DFT with DH, B97 family of functionals
   V. Asgeirsson, H. Jonsson                     : NEB implementation
   FAccTs GmbH                                   : IRC, NEB, NEB-TS, Multilevel, MM, QM/MM, CI optimization
   S Lehtola, MJT Oliveira, MAL Marques          : LibXC Library


 Your calculation uses the libint2 library for the computation of 2-el integrals
 For citations please refer to: http://libint.valeyev.net

 Your ORCA version has been built with support for libXC version: 4.2.3
 For citations please refer to: https://tddft.org/programs/libxc/

 This ORCA versions uses:
   CBLAS   interface :  Fast vector & matrix operations
   LAPACKE interface :  Fast linear algebra routines
   SCALAPACK package :  Parallel linear algebra routines


Your calculation utilizes the atom-pairwise dispersion correction
with the Becke-Johnson damping scheme (D3BJ)
Cite in your paper:
S.Grimme, S.Ehrlich, L.Goerigk, J Comput Chem, (2011), 32, 1456–1465 
S.Grimme, J.Antony, S.Ehrlich and H.Krieg, J.Chem.Phys., 132, (2010), 154104 
   

----- Orbital basis set information -----
Your calculation utilizes the basis: def2-TZVPPD
   F. Weigend and R. Ahlrichs, Phys. Chem. Chem. Phys. 7, 3297 (2005).
   D. Rappoport and F. Furche, J. Chem. Phys. 133 134105 (2010).

----- AuxJ basis set information -----
Your calculation utilizes the auxiliary basis: def2/J
   F. Weigend, Phys. Chem. Chem. Phys. 8, 1057 (2006).

cite the ECPs for Ru [Def2-ECP] as follows:
Ce-Yb(ecp-28): M. Dolg, H. Stoll, H.Preuss, J. Chem. Phys., 1989, 90, 1730-1734.
Y-Cd(ecp-28), Hf-Hg(ecp-46): D. Andrae,U. Haeussermann, M. Dolg, H. Stoll, H. Preuss, Theor. Chim. Acta, 1990, 77, 123-141.
In-Sb(ecp-28), Tl-Bi(ecp-46): B. Metz, H. Stoll, M. Dolg, J. Chem. Phys., 2000, 113, 2563-2569.
Te-Xe(ecp-28), Po-Rn(ecp-46): K. A. Peterson, D. Figgen, E. Goll, H. Stoll, M. Dolg, J. Chem. Phys., 2003, 119, 11113-11123.
Rb(ecp-28), Cs(ecp-46): T. Leininger, A. Nicklass, W. Kuechle, H. Stoll, M. Dolg, A. Bergner, Chem. Phys. Lett., 1996, 255, 274-280.
Sr(ecp-28), Ba(ecp-46): M. Kaupp, P. V. Schleyer, H. Stoll and H. Preuss, J. Chem. Phys., 1991, 94, 1360-1366.
La(ecp-46): M. Dolg, H. Stoll, A. Savin, H. Preuss, Theor. Chim. Acta, 1989, 75, 173-194.
Lu(ecp-28): X. Cao, M. Dolg, J. Chem. Phys., 2001, 115, 7348-7355.

ECP parameters for Ru [Def2-ECP] have been obtained from:
TURBOMOLE (7.0.2)

================================================================================
                                        WARNINGS
                       Please study these warnings very carefully!
================================================================================


INFO   : the flag for use of LIBINT has been found!

================================================================================
                                       INPUT FILE
================================================================================
NAME = MOR34_pr35.in
|  1> #
|  2> # MOR34_pr35 TPSS-D3BJ/Def2-TZVPPD
|  3> #
|  4> ! tpss d3bj def2-tzvppd def2/j grid4 nofinalgrid
|  5> 
|  6> *xyz 0 1
|  7> Ru       0.569145    0.005836    0.165179 
|  8> Se      -1.577691    0.219302   -1.256403 
|  9> P        2.150844   -0.339975    1.751510 
| 10> P        1.960774    0.268717   -1.689611 
| 11> P        0.209152    2.312844    0.427199 
| 12> P        0.201777   -2.273734   -0.170115 
| 13> C       -3.165297    0.017396   -0.190307 
| 14> C       -4.394132    0.053132   -0.874133 
| 15> C       -5.595730   -0.078160   -0.183035 
| 16> C       -5.602894   -0.248979    1.204636 
| 17> C       -4.386994   -0.285335    1.887322 
| 18> C       -3.179536   -0.153593    1.200055 
| 19> C        2.835775    1.024261    2.797241 
| 20> C        3.776990   -1.134294    1.350685 
| 21> C        1.582544   -1.410719    3.147602 
| 22> C        1.189258    0.640725   -3.324662 
| 23> C        3.233820    1.610023   -1.608962 
| 24> C        3.088037   -1.102636   -2.218553 
| 25> C       -1.285561    2.723129    1.411363 
| 26> C        1.411100    3.483245    1.220886 
| 27> C       -0.106458    3.317190   -1.091179 
| 28> C       -1.203048   -2.960414    0.792609 
| 29> C        1.495583   -3.557062    0.180127 
| 30> C       -0.249251   -2.863510   -1.860160 
| 31> H       -0.380046   -0.139952    1.501494 
| 32> H       -4.399385    0.184833   -1.953205 
| 33> H       -6.533440   -0.047821   -0.732848 
| 34> H       -6.541373   -0.352173    1.741881 
| 35> H       -4.372710   -0.417664    2.966984 
| 36> H       -2.231572   -0.183831    1.730627 
| 37> H        2.021868    1.525326    3.326216 
| 38> H        3.360848    1.757391    2.181578 
| 39> H        3.533951    0.611895    3.534364 
| 40> H        4.357450   -0.458164    0.715432 
| 41> H        3.629968   -2.070962    0.811827 
| 42> H        4.349762   -1.333108    2.263576 
| 43> H        0.778593   -0.879257    3.663997 
| 44> H        2.395525   -1.623101    3.851423 
| 45> H        1.170731   -2.350778    2.777081 
| 46> H        1.942377    0.770617   -4.110078 
| 47> H        0.580686    1.544719   -3.247034 
| 48> H        0.519142   -0.181425   -3.592607 
| 49> H        3.848415    1.640003   -2.515852 
| 50> H        3.881269    1.436754   -0.744032 
| 51> H        2.749674    2.580347   -1.477575 
| 52> H        3.680607   -0.803573   -3.090502 
| 53> H        2.506614   -1.989838   -2.479223 
| 54> H        3.765021   -1.364235   -1.402566 
| 55> H       -1.422862    3.807855    1.484184 
| 56> H       -1.180491    2.295670    2.412101 
| 57> H       -2.158099    2.270920    0.935224 
| 58> H        1.060677    4.511234    1.077988 
| 59> H        2.402787    3.383240    0.772277 
| 60> H        1.491749    3.290644    2.291344 
| 61> H       -0.430215    4.323980   -0.805953 
| 62> H       -0.883917    2.832935   -1.685612 
| 63> H        0.806667    3.401312   -1.686904 
| 64> H       -1.338643   -4.028887    0.591012 
| 65> H       -2.108817   -2.414477    0.518490 
| 66> H       -1.024200   -2.804556    1.859563 
| 67> H        1.083825   -4.556345    0.001539 
| 68> H        1.848365   -3.505467    1.212021 
| 69> H        2.350340   -3.408454   -0.485526 
| 70> H       -0.446095   -3.940916   -1.837012 
| 71> H        0.566038   -2.668527   -2.561627 
| 72> H       -1.135395   -2.323383   -2.198214 
| 73> *
| 74> 
| 75> %maxcore 5000
| 76> 
| 77> %pal
| 78> nprocs = 24
| 79> end
| 80> 
| 81> 
| 82>                          ****END OF INPUT****
================================================================================

                       ****************************
                       * Single Point Calculation *
                       ****************************

---------------------------------
CARTESIAN COORDINATES (ANGSTROEM)
---------------------------------
  Ru     0.569145    0.005836    0.165179
  Se    -1.577691    0.219302   -1.256403
  P      2.150844   -0.339975    1.751510
  P      1.960774    0.268717   -1.689611
  P      0.209152    2.312844    0.427199
  P      0.201777   -2.273734   -0.170115
  C     -3.165297    0.017396   -0.190307
  C     -4.394132    0.053132   -0.874133
  C     -5.595730   -0.078160   -0.183035
  C     -5.602894   -0.248979    1.204636
  C     -4.386994   -0.285335    1.887322
  C     -3.179536   -0.153593    1.200055
  C      2.835775    1.024261    2.797241
  C      3.776990   -1.134294    1.350685
  C      1.582544   -1.410719    3.147602
  C      1.189258    0.640725   -3.324662
  C      3.233820    1.610023   -1.608962
  C      3.088037   -1.102636   -2.218553
  C     -1.285561    2.723129    1.411363
  C      1.411100    3.483245    1.220886
  C     -0.106458    3.317190   -1.091179
  C     -1.203048   -2.960414    0.792609
  C      1.495583   -3.557062    0.180127
  C     -0.249251   -2.863510   -1.860160
  H     -0.380046   -0.139952    1.501494
  H     -4.399385    0.184833   -1.953205
  H     -6.533440   -0.047821   -0.732848
  H     -6.541373   -0.352173    1.741881
  H     -4.372710   -0.417664    2.966984
  H     -2.231572   -0.183831    1.730627
  H      2.021868    1.525326    3.326216
  H      3.360848    1.757391    2.181578
  H      3.533951    0.611895    3.534364
  H      4.357450   -0.458164    0.715432
  H      3.629968   -2.070962    0.811827
  H      4.349762   -1.333108    2.263576
  H      0.778593   -0.879257    3.663997
  H      2.395525   -1.623101    3.851423
  H      1.170731   -2.350778    2.777081
  H      1.942377    0.770617   -4.110078
  H      0.580686    1.544719   -3.247034
  H      0.519142   -0.181425   -3.592607
  H      3.848415    1.640003   -2.515852
  H      3.881269    1.436754   -0.744032
  H      2.749674    2.580347   -1.477575
  H      3.680607   -0.803573   -3.090502
  H      2.506614   -1.989838   -2.479223
  H      3.765021   -1.364235   -1.402566
  H     -1.422862    3.807855    1.484184
  H     -1.180491    2.295670    2.412101
  H     -2.158099    2.270920    0.935224
  H      1.060677    4.511234    1.077988
  H      2.402787    3.383240    0.772277
  H      1.491749    3.290644    2.291344
  H     -0.430215    4.323980   -0.805953
  H     -0.883917    2.832935   -1.685612
  H      0.806667    3.401312   -1.686904
  H     -1.338643   -4.028887    0.591012
  H     -2.108817   -2.414477    0.518490
  H     -1.024200   -2.804556    1.859563
  H      1.083825   -4.556345    0.001539
  H      1.848365   -3.505467    1.212021
  H      2.350340   -3.408454   -0.485526
  H     -0.446095   -3.940916   -1.837012
  H      0.566038   -2.668527   -2.561627
  H     -1.135395   -2.323383   -2.198214

----------------------------
CARTESIAN COORDINATES (A.U.)
----------------------------
  NO LB      ZA    FRAG     MASS         X           Y           Z
   0 Ru   16.0000*   0   101.070    1.075528    0.011028    0.312143
   1 Se   34.0000    0    78.960   -2.981404    0.414421   -2.374258
   2 P    15.0000    0    30.974    4.064506   -0.642460    3.309874
   3 P    15.0000    0    30.974    3.705326    0.507802   -3.192902
   4 P    15.0000    0    30.974    0.395240    4.370642    0.807289
   5 P    15.0000    0    30.974    0.381303   -4.296735   -0.321471
   6 C     6.0000    0    12.011   -5.981544    0.032874   -0.359628
   7 C     6.0000    0    12.011   -8.303706    0.100405   -1.651872
   8 C     6.0000    0    12.011  -10.574397   -0.147701   -0.345886
   9 C     6.0000    0    12.011  -10.587935   -0.470502    2.276432
  10 C     6.0000    0    12.011   -8.290217   -0.539205    3.566522
  11 C     6.0000    0    12.011   -6.008452   -0.290249    2.267775
  12 C     6.0000    0    12.011    5.358838    1.935573    5.286019
  13 C     6.0000    0    12.011    7.137477   -2.143505    2.552425
  14 C     6.0000    0    12.011    2.990575   -2.665873    5.948106
  15 C     6.0000    0    12.011    2.247372    1.210795   -6.282701
  16 C     6.0000    0    12.011    6.111034    3.042503   -3.040498
  17 C     6.0000    0    12.011    5.835544   -2.083680   -4.192458
  18 C     6.0000    0    12.011   -2.429358    5.145968    2.667090
  19 C     6.0000    0    12.011    2.666593    6.582379    2.307140
  20 C     6.0000    0    12.011   -0.201176    6.268581   -2.062029
  21 C     6.0000    0    12.011   -2.273431   -5.594372    1.497814
  22 C     6.0000    0    12.011    2.826242   -6.721873    0.340391
  23 C     6.0000    0    12.011   -0.471016   -5.411250   -3.515193
  24 H     1.0000    0     1.008   -0.718183   -0.264471    2.837412
  25 H     1.0000    0     1.008   -8.313633    0.349284   -3.691023
  26 H     1.0000    0     1.008  -12.346412   -0.090369   -1.384882
  27 H     1.0000    0     1.008  -12.361404   -0.665511    3.291678
  28 H     1.0000    0     1.008   -8.263224   -0.789271    5.606787
  29 H     1.0000    0     1.008   -4.217060   -0.347390    3.270411
  30 H     1.0000    0     1.008    3.820777    2.882448    6.285637
  31 H     1.0000    0     1.008    6.351082    3.320988    4.122585
  32 H     1.0000    0     1.008    6.678200    1.156314    6.678980
  33 H     1.0000    0     1.008    8.234387   -0.865804    1.351971
  34 H     1.0000    0     1.008    6.859645   -3.913551    1.534131
  35 H     1.0000    0     1.008    8.219859   -2.519209    4.277539
  36 H     1.0000    0     1.008    1.471328   -1.661555    6.923951
  37 H     1.0000    0     1.008    4.526886   -3.067216    7.278135
  38 H     1.0000    0     1.008    2.212361   -4.442327    5.247923
  39 H     1.0000    0     1.008    3.670561    1.456255   -7.766922
  40 H     1.0000    0     1.008    1.097338    2.919096   -6.136005
  41 H     1.0000    0     1.008    0.981036   -0.342844   -6.789043
  42 H     1.0000    0     1.008    7.272450    3.099157   -4.754271
  43 H     1.0000    0     1.008    7.334535    2.715072   -1.406017
  44 H     1.0000    0     1.008    5.196131    4.876149   -2.792212
  45 H     1.0000    0     1.008    6.955339   -1.518533   -5.840202
  46 H     1.0000    0     1.008    4.736814   -3.760249   -4.685052
  47 H     1.0000    0     1.008    7.114859   -2.578031   -2.650466
  48 H     1.0000    0     1.008   -2.688820    7.195803    2.804701
  49 H     1.0000    0     1.008   -2.230805    4.338188    4.558210
  50 H     1.0000    0     1.008   -4.078216    4.291417    1.767317
  51 H     1.0000    0     1.008    2.004389    8.524997    2.037102
  52 H     1.0000    0     1.008    4.540609    6.393397    1.459392
  53 H     1.0000    0     1.008    2.818997    6.218416    4.330013
  54 H     1.0000    0     1.008   -0.812989    8.171138   -1.523030
  55 H     1.0000    0     1.008   -1.670361    5.353471   -3.185345
  56 H     1.0000    0     1.008    1.524380    6.427548   -3.187787
  57 H     1.0000    0     1.008   -2.529669   -7.613493    1.116851
  58 H     1.0000    0     1.008   -3.985087   -4.562700    0.979804
  59 H     1.0000    0     1.008   -1.935458   -5.299843    3.514065
  60 H     1.0000    0     1.008    2.048132   -8.610244    0.002908
  61 H     1.0000    0     1.008    3.492904   -6.624373    2.290388
  62 H     1.0000    0     1.008    4.441499   -6.441045   -0.917511
  63 H     1.0000    0     1.008   -0.842997   -7.447252   -3.471450
  64 H     1.0000    0     1.008    1.069657   -5.042785   -4.840773
  65 H     1.0000    0     1.008   -2.145586   -4.390558   -4.154022
* core charge reduced due to ECP

--------------------------------
INTERNAL COORDINATES (ANGSTROEM)
--------------------------------
 Ru     0   0   0     0.000000000000     0.00000000     0.00000000
 Se     1   0   0     2.583673339797     0.00000000     0.00000000
 P      1   2   0     2.266672233889   167.82254067     0.00000000
 P      1   2   3     2.333663137195    92.80200809   166.76047424
 P      1   2   4     2.349581952713    81.54250247    93.60996449
 P      1   2   5     2.333199669715    82.57788689   171.55856280
 C      2   1   3     1.922971535226   111.85725351    11.53164182
 C      7   2   1     1.406744652450   116.68103661   182.89427994
 C      8   7   2     1.392369127951   120.67546268   180.32195416
 C      9   8   7     1.398163530456   120.56823091   359.95785876
 C     10   9   8     1.394917468287   118.97675665     0.02962446
 C     11  10   9     1.395581135448   120.70981207     0.00000000
 C      3   1   6     1.850357712124   122.77488556   189.94728228
 C      3   1   6     1.853632694927   121.74980608    66.09597685
 C      3   1   6     1.848926844415   113.72287748   305.48122482
 C      4   1   2     1.845811112471   118.52185856     4.64911413
 C      4   1   2     1.851013820843   117.20186271   125.29182222
 C      4   1   2     1.852325716806   120.42876078   243.44902180
 C      5   1   2     1.836049975488   113.82342303    67.88974492
 C      5   1   2     1.855924715465   124.58766552   188.75554278
 C      5   1   2     1.847645071625   117.92139312   310.71897344
 C      6   1   2     1.836273455453   114.23454853   286.92909855
 C      6   1   2     1.855676205534   122.60004795   165.81372350
 C      6   1   2     1.845945310399   118.82881057    44.64401051
 H      1   2   7     1.645586665797    88.55850777   356.78184672
 H      8   7   2     1.087092051573   119.32859830     0.32281936
 H      9   8   7     1.087434979201   119.37871067   180.02116994
 H     10   9   8     1.086289107513   120.45691982   180.05833852
 H     11  10   9     1.087835020185   120.02306522   180.01216553
 H     12  11  10     1.086764339277   120.77359530   180.12777620
 H     13   3   1     1.092394292140   109.63645103    56.86061758
 H     13   3   1     1.091889271766   110.75541842   296.70416021
 H     13   3   1     1.095831082814   109.78853649   176.28248171
 H     14   3   1     1.094363724960   109.03119945    67.93586954
 H     14   3   1     1.090564236931   110.89313962   308.68003754
 H     14   3   1     1.095885371953   110.86246403   187.40227776
 H     15   3   1     1.093367670946   107.52575735   295.64752171
 H     15   3   1     1.096087688247   111.65938172   175.32529672
 H     15   3   1     1.091140083532   111.01001699    53.04348534
 H     16   4   1     1.095873374474   111.80851335   178.34122230
 H     16   4   1     1.092515966750   109.67318472    56.53749464
 H     16   4   1     1.093974679314   108.75567273   299.43004624
 H     17   4   1     1.095935804016   111.68221369   178.84907124
 H     17   4   1     1.094219474723   109.06495375    58.23292049
 H     17   4   1     1.092331706974   110.12730248   299.96812599
 H     18   4   1     1.095843484020   110.74730956   181.08555098
 H     18   4   1     1.092304418481   110.21468700    60.84087912
 H     18   4   1     1.092051352834   109.95248911   301.54367654
 H     19   5   1     1.095803338979   111.02812461   181.37900991
 H     19   5   1     1.093269155435   108.96827150    60.35997306
 H     19   5   1     1.092027421105   108.91814056   302.40497515
 H     20   5   1     1.095434845828   109.19857602   171.64343775
 H     20   5   1     1.093020649793   110.75462316    51.82768862
 H     20   5   1     1.090632722857   110.87089122   291.14673263
 H     21   5   1     1.095353171459   109.64119664   169.95413318
 H     21   5   1     1.091923071098   109.14300190    49.63426167
 H     21   5   1     1.093509054436   110.29629282   289.42313187
 H     22   6   1     1.095747190808   111.27583572   179.39156737
 H     22   6   1     1.092522729965   108.41252727    58.56115809
 H     22   6   1     1.093009222918   109.46777602   300.95053501
 H     23   6   1     1.095447323424   109.75623725   176.95232143
 H     23   6   1     1.091751991427   111.77753787    56.41490656
 H     23   6   1     1.093520819702   109.63992965   296.13145019
 H     24   6   1     1.095484860268   109.80275938   183.42327351
 H     24   6   1     1.093055568532   110.38410322    63.41923298
 H     24   6   1     1.091452642940   108.89494476   304.31833747

---------------------------
INTERNAL COORDINATES (A.U.)
---------------------------
 Ru     0   0   0     0.000000000000     0.00000000     0.00000000
 Se     1   0   0     4.882435031729     0.00000000     0.00000000
 P      1   2   0     4.283389757414   167.82254067     0.00000000
 P      1   2   3     4.409984218126    92.80200809   166.76047424
 P      1   2   4     4.440066419831    81.54250247    93.60996449
 P      1   2   5     4.409108391518    82.57788689   171.55856280
 C      2   1   3     3.633889564903   111.85725351    11.53164182
 C      7   2   1     2.658362133489   116.68103661   182.89427994
 C      8   7   2     2.631196329155   120.67546268   180.32195416
 C      9   8   7     2.642146162999   120.56823091   359.95785876
 C     10   9   8     2.636011994485   118.97675665     0.02962446
 C     11  10   9     2.637266143663   120.70981207     0.00000000
 C      3   1   6     3.496669325704   122.77488556   189.94728228
 C      3   1   6     3.502858146294   121.74980608    66.09597685
 C      3   1   6     3.493965377600   113.72287748   305.48122482
 C      4   1   2     3.488077497518   118.52185856     4.64911413
 C      4   1   2     3.497909191497   117.20186271   125.29182222
 C      4   1   2     3.500388315583   120.42876078   243.44902180
 C      5   1   2     3.469631621865   113.82342303    67.88974492
 C      5   1   2     3.507189437405   124.58766552   188.75554278
 C      5   1   2     3.491543178060   117.92139312   310.71897344
 C      6   1   2     3.470053937795   114.23454853   286.92909855
 C      6   1   2     3.506719821693   122.60004795   165.81372350
 C      6   1   2     3.488331094851   118.82881057    44.64401051
 H      1   2   7     3.109708127990    88.55850777   356.78184672
 H      8   7   2     2.054306259836   119.32859830     0.32281936
 H      9   8   7     2.054954299136   119.37871067   180.02116994
 H     10   9   8     2.052788915462   120.45691982   180.05833852
 H     11  10   9     2.055710267038   120.02306522   180.01216553
 H     12  11  10     2.053686973345   120.77359530   180.12777620
 H     13   3   1     2.064326042402   109.63645103    56.86061758
 H     13   3   1     2.063371692205   110.75541842   296.70416021
 H     13   3   1     2.070820635557   109.78853649   176.28248171
 H     14   3   1     2.068047731073   109.03119945    67.93586954
 H     14   3   1     2.060867739248   110.89313962   308.68003754
 H     14   3   1     2.070923227162   110.86246403   187.40227776
 H     15   3   1     2.066165461771   107.52575735   295.64752171
 H     15   3   1     2.071305549549   111.65938172   175.32529672
 H     15   3   1     2.061955931620   111.01001699    53.04348534
 H     16   4   1     2.070900555212   111.80851335   178.34122230
 H     16   4   1     2.064555974094   109.67318472    56.53749464
 H     16   4   1     2.067312541349   108.75567273   299.43004624
 H     17   4   1     2.071018529950   111.68221369   178.84907124
 H     17   4   1     2.067775137629   109.06495375    58.23292049
 H     17   4   1     2.064207773580   110.12730248   299.96812599
 H     18   4   1     2.070844070441   110.74730956   181.08555098
 H     18   4   1     2.064156205801   110.21468700    60.84087912
 H     18   4   1     2.063677981034   109.95248911   301.54367654
 H     19   5   1     2.070768207307   111.02812461   181.37900991
 H     19   5   1     2.065979294435   108.96827150    60.35997306
 H     19   5   1     2.063632756621   108.91814056   302.40497515
 H     20   5   1     2.070071856169   109.19857602   171.64343775
 H     20   5   1     2.065509686830   110.75462316    51.82768862
 H     20   5   1     2.060997158892   110.87089122   291.14673263
 H     21   5   1     2.069917513979   109.64119664   169.95413318
 H     21   5   1     2.063435563685   109.14300190    49.63426167
 H     21   5   1     2.066432637848   110.29629282   289.42313187
 H     22   6   1     2.070662102640   111.27583572   179.39156737
 H     22   6   1     2.064568754719   108.41252727    58.56115809
 H     22   6   1     2.065488093165   109.46777602   300.95053501
 H     23   6   1     2.070095435409   109.75623725   176.95232143
 H     23   6   1     2.063112269960   111.77753787    56.41490656
 H     23   6   1     2.066454870978   109.63992965   296.13145019
 H     24   6   1     2.070166369763   109.80275938   183.42327351
 H     24   6   1     2.065575673683   110.38410322    63.41923298
 H     24   6   1     2.062546583301   108.89494476   304.31833747

---------------------
BASIS SET INFORMATION
---------------------
There are 5 groups of distinct atoms

 Group   1 Type Ru  : 7s7p5d2f1g contracted to 6s4p3d2f1g pattern {211111/4111/311/11/1}
 Group   2 Type Se  : 18s14p9d1f contracted to 7s6p5d1f pattern {8421111/641111/51111/1}
 Group   3 Type P   : 15s9p4d1f contracted to 6s5p4d1f pattern {732111/51111/1111/1}
 Group   4 Type C   : 12s6p3d1f contracted to 6s3p3d1f pattern {621111/411/111/1}
 Group   5 Type H   : 5s3p1d contracted to 3s3p1d pattern {311/111/1}

Atom   0Ru   basis set group =>   1
Atom   1Se   basis set group =>   2
Atom   2P    basis set group =>   3
Atom   3P    basis set group =>   3
Atom   4P    basis set group =>   3
Atom   5P    basis set group =>   3
Atom   6C    basis set group =>   4
Atom   7C    basis set group =>   4
Atom   8C    basis set group =>   4
Atom   9C    basis set group =>   4
Atom  10C    basis set group =>   4
Atom  11C    basis set group =>   4
Atom  12C    basis set group =>   4
Atom  13C    basis set group =>   4
Atom  14C    basis set group =>   4
Atom  15C    basis set group =>   4
Atom  16C    basis set group =>   4
Atom  17C    basis set group =>   4
Atom  18C    basis set group =>   4
Atom  19C    basis set group =>   4
Atom  20C    basis set group =>   4
Atom  21C    basis set group =>   4
Atom  22C    basis set group =>   4
Atom  23C    basis set group =>   4
Atom  24H    basis set group =>   5
Atom  25H    basis set group =>   5
Atom  26H    basis set group =>   5
Atom  27H    basis set group =>   5
Atom  28H    basis set group =>   5
Atom  29H    basis set group =>   5
Atom  30H    basis set group =>   5
Atom  31H    basis set group =>   5
Atom  32H    basis set group =>   5
Atom  33H    basis set group =>   5
Atom  34H    basis set group =>   5
Atom  35H    basis set group =>   5
Atom  36H    basis set group =>   5
Atom  37H    basis set group =>   5
Atom  38H    basis set group =>   5
Atom  39H    basis set group =>   5
Atom  40H    basis set group =>   5
Atom  41H    basis set group =>   5
Atom  42H    basis set group =>   5
Atom  43H    basis set group =>   5
Atom  44H    basis set group =>   5
Atom  45H    basis set group =>   5
Atom  46H    basis set group =>   5
Atom  47H    basis set group =>   5
Atom  48H    basis set group =>   5
Atom  49H    basis set group =>   5
Atom  50H    basis set group =>   5
Atom  51H    basis set group =>   5
Atom  52H    basis set group =>   5
Atom  53H    basis set group =>   5
Atom  54H    basis set group =>   5
Atom  55H    basis set group =>   5
Atom  56H    basis set group =>   5
Atom  57H    basis set group =>   5
Atom  58H    basis set group =>   5
Atom  59H    basis set group =>   5
Atom  60H    basis set group =>   5
Atom  61H    basis set group =>   5
Atom  62H    basis set group =>   5
Atom  63H    basis set group =>   5
Atom  64H    basis set group =>   5
Atom  65H    basis set group =>   5
---------------------------------
AUXILIARY/J BASIS SET INFORMATION
---------------------------------
There are 5 groups of distinct atoms

 Group   1 Type Ru  : 11s5p5d3f3g contracted to 8s5p5d2f3g pattern {41111111/11111/11111/21/111}
 Group   2 Type Se  : 19s5p5d3f1g contracted to 8s4p3d2f1g pattern {121111111/2111/311/21/1}
 Group   3 Type P   : 14s5p5d2f1g contracted to 8s4p3d1f1g pattern {71111111/2111/311/2/1}
 Group   4 Type C   : 12s5p4d2f1g contracted to 6s4p3d1f1g pattern {711111/2111/211/2/1}
 Group   5 Type H   : 5s2p1d contracted to 3s1p1d pattern {311/2/1}

Atom   0Ru   basis set group =>   1
Atom   1Se   basis set group =>   2
Atom   2P    basis set group =>   3
Atom   3P    basis set group =>   3
Atom   4P    basis set group =>   3
Atom   5P    basis set group =>   3
Atom   6C    basis set group =>   4
Atom   7C    basis set group =>   4
Atom   8C    basis set group =>   4
Atom   9C    basis set group =>   4
Atom  10C    basis set group =>   4
Atom  11C    basis set group =>   4
Atom  12C    basis set group =>   4
Atom  13C    basis set group =>   4
Atom  14C    basis set group =>   4
Atom  15C    basis set group =>   4
Atom  16C    basis set group =>   4
Atom  17C    basis set group =>   4
Atom  18C    basis set group =>   4
Atom  19C    basis set group =>   4
Atom  20C    basis set group =>   4
Atom  21C    basis set group =>   4
Atom  22C    basis set group =>   4
Atom  23C    basis set group =>   4
Atom  24H    basis set group =>   5
Atom  25H    basis set group =>   5
Atom  26H    basis set group =>   5
Atom  27H    basis set group =>   5
Atom  28H    basis set group =>   5
Atom  29H    basis set group =>   5
Atom  30H    basis set group =>   5
Atom  31H    basis set group =>   5
Atom  32H    basis set group =>   5
Atom  33H    basis set group =>   5
Atom  34H    basis set group =>   5
Atom  35H    basis set group =>   5
Atom  36H    basis set group =>   5
Atom  37H    basis set group =>   5
Atom  38H    basis set group =>   5
Atom  39H    basis set group =>   5
Atom  40H    basis set group =>   5
Atom  41H    basis set group =>   5
Atom  42H    basis set group =>   5
Atom  43H    basis set group =>   5
Atom  44H    basis set group =>   5
Atom  45H    basis set group =>   5
Atom  46H    basis set group =>   5
Atom  47H    basis set group =>   5
Atom  48H    basis set group =>   5
Atom  49H    basis set group =>   5
Atom  50H    basis set group =>   5
Atom  51H    basis set group =>   5
Atom  52H    basis set group =>   5
Atom  53H    basis set group =>   5
Atom  54H    basis set group =>   5
Atom  55H    basis set group =>   5
Atom  56H    basis set group =>   5
Atom  57H    basis set group =>   5
Atom  58H    basis set group =>   5
Atom  59H    basis set group =>   5
Atom  60H    basis set group =>   5
Atom  61H    basis set group =>   5
Atom  62H    basis set group =>   5
Atom  63H    basis set group =>   5
Atom  64H    basis set group =>   5
Atom  65H    basis set group =>   5
-------------------------
ECP PARAMETER INFORMATION
-------------------------

 Group 1, Type Ru ECP Def2-ECP (replacing 28 core electrons, lmax=3)

Atom   0Ru   ECP group =>   1



           ************************************************************
           *        Program running with 24 parallel MPI-processes    *
           *              working on a common directory               *
           ************************************************************
------------------------------------------------------------------------------
                           ORCA GTO INTEGRAL CALCULATION
                           -- RI-GTO INTEGRALS CHOSEN --
------------------------------------------------------------------------------

                         BASIS SET STATISTICS AND STARTUP INFO

Gaussian basis set:
 # of primitive gaussian shells          ...  954
 # of primitive gaussian functions       ... 2198
 # of contracted shells                  ...  627
 # of contracted basis functions         ... 1685
 Highest angular momentum                ...    4
 Maximum contraction depth               ...    8
Auxiliary gaussian basis set:
 # of primitive gaussian shells          ...  936
 # of primitive gaussian functions       ... 2428
 # of contracted shells                  ...  589
 # of contracted aux-basis functions     ... 1695
 Highest angular momentum                ...    4
 Maximum contraction depth               ...   12
Ratio of auxiliary to basis functions    ...  1.01
Integral package used                  ... LIBINT
 One Electron integrals                  
   ECP integrals                         ... done
 Ordering auxiliary basis shells         ... done
 Integral threshhold             Thresh  ...  1.000e-10
 Primitive cut-off               TCut    ...  1.000e-11
 Pre-screening matrix                    ... done
 Shell pair data                         ... 
 Ordering of the shell pairs             ... done (   0.031 sec) 145053 of 196878 pairs
 Determination of significant pairs      ... done (   0.001 sec)
 Creation of shell pair data             ... done (   0.014 sec)
 Storage of shell pair data              ... done (   0.024 sec)
 Shell pair data done in (   0.070 sec)
 Computing two index integrals           ... done
 Cholesky decomposition of the V-matrix  ... done


Timings:
 Total evaluation time                   ...  11.366 sec (  0.189 min)
 One electron matrix time                ...   9.993 sec (  0.167 min) = 87.9%
 Schwartz matrix evaluation time         ...   1.078 sec (  0.018 min) =  9.5%
 Two index repulsion integral time       ...   0.066 sec (  0.001 min) =  0.6%
 Cholesky decomposition of V             ...   0.132 sec (  0.002 min) =  1.2%
 Three index repulsion integral time     ...   0.000 sec (  0.000 min) =  0.0%



           ************************************************************
           *        Program running with 24 parallel MPI-processes    *
           *              working on a common directory               *
           ************************************************************
-------------------------------------------------------------------------------
                                 ORCA SCF
-------------------------------------------------------------------------------

------------
SCF SETTINGS
------------
Hamiltonian:
 Density Functional     Method          .... DFT(GTOs)
 Exchange Functional    Exchange        .... TPSS
 Correlation Functional Correlation     .... TPSS
 LDA part of GGA corr.  LDAOpt          .... PW91-LDA
 Gradients option       PostSCFGGA      .... off
   Density functional embedding theory  .... OFF
   NL short-range parameter             ....  5.000000
 RI-approximation to the Coulomb term is turned on
   Number of auxiliary basis functions  .... 1695


General Settings:
 Integral files         IntName         .... MOR34_pr35
 Hartree-Fock type      HFTyp           .... RHF
 Total Charge           Charge          ....    0
 Multiplicity           Mult            ....    1
 Number of Electrons    NEL             ....  260
 Basis Dimension        Dim             .... 1685
 Nuclear Repulsion      ENuc            ....   4329.4739997656 Eh

Convergence Acceleration:
 DIIS                   CNVDIIS         .... on
   Start iteration      DIISMaxIt       ....    12
   Startup error        DIISStart       ....  0.200000
   # of expansion vecs  DIISMaxEq       ....     5
   Bias factor          DIISBfac        ....   1.050
   Max. coefficient     DIISMaxC        ....  10.000
 Newton-Raphson         CNVNR           .... off
 SOSCF                  CNVSOSCF        .... off
 Level Shifting         CNVShift        .... on
   Level shift para.    LevelShift      ....    0.2500
   Turn off err/grad.   ShiftErr        ....    0.0010
 Zerner damping         CNVZerner       .... off
 Static damping         CNVDamp         .... on
   Fraction old density DampFac         ....    0.7000
   Max. Damping (<1)    DampMax         ....    0.9800
   Min. Damping (>=0)   DampMin         ....    0.0000
   Turn off err/grad.   DampErr         ....    0.1000
 Fernandez-Rico         CNVRico         .... off

SCF Procedure:
 Maximum # iterations   MaxIter         ....   125
 SCF integral mode      SCFMode         .... Direct
   Integral package                     .... LIBINT
 Reset frequency        DirectResetFreq ....    20
 Integral Threshold     Thresh          ....  1.000e-10 Eh
 Primitive CutOff       TCut            ....  1.000e-11 Eh

Convergence Tolerance:
 Convergence Check Mode ConvCheckMode   .... Total+1el-Energy
 Convergence forced     ConvForced      .... 0
 Energy Change          TolE            ....  1.000e-06 Eh
 1-El. energy change                    ....  1.000e-03 Eh
 DIIS Error             TolErr          ....  1.000e-06


Diagonalization of the overlap matrix:
Smallest eigenvalue                        ... 3.615e-07
Time for diagonalization                   ...    0.348 sec
Threshold for overlap eigenvalues          ... 1.000e-08
Number of eigenvalues below threshold      ... 0
Time for construction of square roots      ...    0.380 sec
Total time needed                          ...    0.743 sec

-------------------
DFT GRID GENERATION
-------------------

General Integration Accuracy     IntAcc      ...  4.670
Radial Grid Type                 RadialGrid  ... Gauss-Chebyshev
Angular Grid (max. acc.)         AngularGrid ... Lebedev-302
Angular grid pruning method      GridPruning ... 3 (G Style)
Weight generation scheme         WeightScheme... Becke
Basis function cutoff            BFCut       ...    1.0000e-10
Integration weight cutoff        WCut        ...    1.0000e-14
Grids for H and He will be reduced by one unit

# of grid points (after initial pruning)     ... 301902 (   0.0 sec)
# of grid points (after weights+screening)   ... 255311 (   0.3 sec)
nearest neighbour list constructed           ...    0.0 sec
Grid point re-assignment to atoms done       ...    0.0 sec
Grid point division into batches done        ...    0.7 sec
Reduced shell lists constructed in    1.3 sec

Total number of grid points                  ...   255311
Total number of batches                      ...     4022
Average number of points per batch           ...       63
Average number of grid points per atom       ...     3868
Average number of shells per batch           ...   345.09 (55.04%)
Average number of basis functions per batch  ...   897.73 (53.28%)
Average number of large shells per batch     ...   243.66 (70.61%)
Average number of large basis fcns per batch ...   642.59 (71.58%)
Maximum spatial batch extension              ...  10.75,  3.61,  8.87 au
Average spatial batch extension              ...   0.06,  0.05,  0.05 au

Time for grid setup =    1.730 sec

------------------------------
INITIAL GUESS: MODEL POTENTIAL
------------------------------
Loading Hartree-Fock densities                     ... done
  calling /sw/apps/orca/orca_4_2_0_linux_x86-64_openmpi314/orca MOR34_pr35_atom44.inp > MOR34_pr35_atom44.out in order to generate an atomic fitting density for atom 0 (Ru with ECP) on-the-fly... 
    atom 0 (Ru), assumed electronic state with S=5: 1s2 2s2 2p6 3s2 3p6 4s2 3d10 4p6 5s2 4d6           ... done
Calculating cut-offs                               ... done
Setting up the integral package                    ... done
Initializing the effective Hamiltonian             ... done
Starting the Coulomb interaction                   ... done (   0.6 sec)
Reading the grid                                   ... done
Mapping shells                                     ... done
Starting the XC term evaluation                    ... done (   1.6 sec)
  promolecular density results
     # of electrons  =    287.983184751
     EX              =   -408.663005601
     EC              =    -11.237707205
     EX+EC           =   -419.900712806
Transforming the Hamiltonian                       ... done (   0.2 sec)
Diagonalizing the Hamiltonian                      ... done (   0.4 sec)
Back transforming the eigenvectors                 ... done (   0.1 sec)
Now organizing SCF variables                       ... done
                      ------------------
                      INITIAL GUESS DONE (   6.0 sec)
                      ------------------
--------------
SCF ITERATIONS
--------------
ITER       Energy         Delta-E        Max-DP      RMS-DP      [F,P]     Damp
               ***  Starting incremental Fock matrix formation  ***
  0  -4572.8913582763   0.000000000000 0.61197826  0.00164673  0.4391772 0.7000
  1  -4573.3236856132  -0.432327336995 0.39026144  0.00134842  0.3036256 0.7000
  2  -4573.4797841711  -0.156098557890 0.43341415  0.00105807  0.2098831 0.7000
                               ***Turning on DIIS***
  3  -4573.5634586395  -0.083674468321 0.34857239  0.00074771  0.1465839 0.7000
  4  -4573.6252654320  -0.061806792506 0.23543022  0.00053094  0.1031005 0.7000
  5  -4573.6696222770  -0.044356845029 2.22531855  0.00211642  0.0724281 0.0000
  6  -4573.7724788609  -0.102856583887 0.69033757  0.00074234  0.0020211 0.0000
  7  -4573.7725752896  -0.000096428676 0.24821705  0.00033044  0.0011318 0.0000
  8  -4573.7725812015  -0.000005911916 0.23830673  0.00030487  0.0007982 0.0000
  9  -4573.7725818308  -0.000000629371 0.07582395  0.00007939  0.0013530 0.0000
 10  -4573.7725864590  -0.000004628153 0.45899575  0.00038603  0.0001244 0.0000
 11  -4573.7725865865  -0.000000127468 0.06825209  0.00013834  0.0000802 0.0000
 12  -4573.7725872756  -0.000000689130 0.05672788  0.00009848  0.0001062 0.0000
 13  -4573.7725864897   0.000000785884 0.14361572  0.00014714  0.0000149 0.0000
                 **** Energy Check signals convergence ****

               *****************************************************
               *                     SUCCESS                       *
               *           SCF CONVERGED AFTER  14 CYCLES          *
               *****************************************************


----------------
TOTAL SCF ENERGY
----------------

Total Energy       :        -4573.77258618 Eh         -124458.67943 eV

Components:
Nuclear Repulsion  :         4329.47399977 Eh          117810.97693 eV
Electronic Energy  :        -8903.24658595 Eh         -242269.65635 eV
One Electron Energy:       -14993.07738559 Eh         -407982.37709 eV
Two Electron Energy:         6089.83079964 Eh          165712.72073 eV

Virial components:
Potential Energy   :        -9075.70697417 Eh         -246962.54210 eV
Kinetic Energy     :         4501.93438798 Eh          122503.86267 eV
Virial Ratio       :            2.01595718


DFT components:
N(Alpha)           :      130.000773988821 electrons
N(Beta)            :      130.000773988821 electrons
N(Total)           :      260.001547977642 electrons
E(X)               :     -294.727279818297 Eh       
E(C)               :       -9.590646142608 Eh       
E(XC)              :     -304.317925960905 Eh       
DFET-embed. en.    :        0.000000000000 Eh       

---------------
SCF CONVERGENCE
---------------

  Last Energy change         ...    3.0671e-07  Tolerance :   1.0000e-06
  Last MAX-Density change    ...    1.1340e-01  Tolerance :   1.0000e-05
  Last RMS-Density change    ...    1.1721e-04  Tolerance :   1.0000e-06
  Last DIIS Error            ...    1.2217e-05  Tolerance :   1.0000e-06

             **** THE GBW FILE WAS UPDATED (MOR34_pr35.gbw) ****
             **** DENSITY FILE WAS UPDATED (MOR34_pr35.scfp) ****
             **** ENERGY FILE WAS UPDATED (MOR34_pr35.en.tmp) ****
             **** THE GBW FILE WAS UPDATED (MOR34_pr35.gbw) ****
             **** DENSITY FILE WAS UPDATED (MOR34_pr35.scfp) ****
----------------
ORBITAL ENERGIES
----------------

  NO   OCC          E(Eh)            E(eV) 
   0   2.0000    -452.738336    -12319.6364 
   1   2.0000     -76.603509     -2084.4875 
   2   2.0000     -76.597622     -2084.3273 
   3   2.0000     -76.596964     -2084.3094 
   4   2.0000     -76.595602     -2084.2723 
   5   2.0000     -57.479874     -1564.1069 
   6   2.0000     -51.550198     -1402.7522 
   7   2.0000     -51.549498     -1402.7331 
   8   2.0000     -51.548698     -1402.7114 
   9   2.0000      -9.988450      -271.7995 
  10   2.0000      -9.988208      -271.7930 
  11   2.0000      -9.986860      -271.7563 
  12   2.0000      -9.986622      -271.7498 
  13   2.0000      -9.986095      -271.7355 
  14   2.0000      -9.985972      -271.7321 
  15   2.0000      -9.983787      -271.6727 
  16   2.0000      -9.982895      -271.6484 
  17   2.0000      -9.979070      -271.5443 
  18   2.0000      -9.974829      -271.4289 
  19   2.0000      -9.974681      -271.4249 
  20   2.0000      -9.973075      -271.3812 
  21   2.0000      -9.971019      -271.3252 
  22   2.0000      -9.967360      -271.2256 
  23   2.0000      -9.967137      -271.2196 
  24   2.0000      -9.964071      -271.1362 
  25   2.0000      -9.963049      -271.1084 
  26   2.0000      -9.959075      -271.0002 
  27   2.0000      -7.543218      -205.2614 
  28   2.0000      -6.374606      -173.4619 
  29   2.0000      -6.369519      -173.3234 
  30   2.0000      -6.368961      -173.3082 
  31   2.0000      -6.367576      -173.2705 
  32   2.0000      -5.503480      -149.7573 
  33   2.0000      -5.498657      -149.6261 
  34   2.0000      -5.495303      -149.5348 
  35   2.0000      -4.552500      -123.8798 
  36   2.0000      -4.552282      -123.8739 
  37   2.0000      -4.549437      -123.7965 
  38   2.0000      -4.547549      -123.7451 
  39   2.0000      -4.546934      -123.7284 
  40   2.0000      -4.546774      -123.7240 
  41   2.0000      -4.546574      -123.7186 
  42   2.0000      -4.545616      -123.6925 
  43   2.0000      -4.544988      -123.6754 
  44   2.0000      -4.544290      -123.6564 
  45   2.0000      -4.543669      -123.6395 
  46   2.0000      -4.542314      -123.6026 
  47   2.0000      -2.862601       -77.8953 
  48   2.0000      -1.908182       -51.9243 
  49   2.0000      -1.907355       -51.9018 
  50   2.0000      -1.904632       -51.8277 
  51   2.0000      -1.900782       -51.7229 
  52   2.0000      -1.900500       -51.7152 
  53   2.0000      -1.737455       -47.2786 
  54   2.0000      -1.735790       -47.2332 
  55   2.0000      -1.731976       -47.1295 
  56   2.0000      -0.769380       -20.9359 
  57   2.0000      -0.719511       -19.5789 
  58   2.0000      -0.712602       -19.3909 
  59   2.0000      -0.708623       -19.2826 
  60   2.0000      -0.706558       -19.2264 
  61   2.0000      -0.674239       -18.3470 
  62   2.0000      -0.665092       -18.0981 
  63   2.0000      -0.648966       -17.6593 
  64   2.0000      -0.645508       -17.5652 
  65   2.0000      -0.645329       -17.5603 
  66   2.0000      -0.641174       -17.4472 
  67   2.0000      -0.638823       -17.3833 
  68   2.0000      -0.634319       -17.2607 
  69   2.0000      -0.632815       -17.2198 
  70   2.0000      -0.631955       -17.1964 
  71   2.0000      -0.577216       -15.7069 
  72   2.0000      -0.530811       -14.4441 
  73   2.0000      -0.510737       -13.8978 
  74   2.0000      -0.503263       -13.6945 
  75   2.0000      -0.495341       -13.4789 
  76   2.0000      -0.490060       -13.3352 
  77   2.0000      -0.487514       -13.2659 
  78   2.0000      -0.441559       -12.0154 
  79   2.0000      -0.424387       -11.5482 
  80   2.0000      -0.414070       -11.2674 
  81   2.0000      -0.411666       -11.2020 
  82   2.0000      -0.406643       -11.0653 
  83   2.0000      -0.404633       -11.0106 
  84   2.0000      -0.398379       -10.8405 
  85   2.0000      -0.394807       -10.7432 
  86   2.0000      -0.392187       -10.6720 
  87   2.0000      -0.389079       -10.5874 
  88   2.0000      -0.386618       -10.5204 
  89   2.0000      -0.384060       -10.4508 
  90   2.0000      -0.382580       -10.4105 
  91   2.0000      -0.380324       -10.3492 
  92   2.0000      -0.377245       -10.2654 
  93   2.0000      -0.369986       -10.0678 
  94   2.0000      -0.367671       -10.0048 
  95   2.0000      -0.366173        -9.9641 
  96   2.0000      -0.363835        -9.9005 
  97   2.0000      -0.360314        -9.8047 
  98   2.0000      -0.357657        -9.7323 
  99   2.0000      -0.356871        -9.7110 
 100   2.0000      -0.355190        -9.6652 
 101   2.0000      -0.353222        -9.6117 
 102   2.0000      -0.351869        -9.5749 
 103   2.0000      -0.351017        -9.5517 
 104   2.0000      -0.345186        -9.3930 
 105   2.0000      -0.343854        -9.3567 
 106   2.0000      -0.329047        -8.9538 
 107   2.0000      -0.313672        -8.5355 
 108   2.0000      -0.309319        -8.4170 
 109   2.0000      -0.306814        -8.3488 
 110   2.0000      -0.306030        -8.3275 
 111   2.0000      -0.301076        -8.1927 
 112   2.0000      -0.298330        -8.1180 
 113   2.0000      -0.294307        -8.0085 
 114   2.0000      -0.291596        -7.9347 
 115   2.0000      -0.290307        -7.8996 
 116   2.0000      -0.287397        -7.8205 
 117   2.0000      -0.286515        -7.7965 
 118   2.0000      -0.281520        -7.6606 
 119   2.0000      -0.275426        -7.4947 
 120   2.0000      -0.254476        -6.9246 
 121   2.0000      -0.237329        -6.4580 
 122   2.0000      -0.219647        -5.9769 
 123   2.0000      -0.207835        -5.6555 
 124   2.0000      -0.206183        -5.6105 
 125   2.0000      -0.199589        -5.4311 
 126   2.0000      -0.186894        -5.0857 
 127   2.0000      -0.177220        -4.8224 
 128   2.0000      -0.165173        -4.4946 
 129   2.0000      -0.136615        -3.7175 
 130   0.0000      -0.020590        -0.5603 
 131   0.0000      -0.019727        -0.5368 
 132   0.0000      -0.014868        -0.4046 
 133   0.0000      -0.010914        -0.2970 
 134   0.0000      -0.002753        -0.0749 
 135   0.0000      -0.002442        -0.0664 
 136   0.0000      -0.000238        -0.0065 
 137   0.0000       0.008813         0.2398 
 138   0.0000       0.009072         0.2468 
 139   0.0000       0.012850         0.3497 
 140   0.0000       0.015213         0.4140 
 141   0.0000       0.017296         0.4706 
 142   0.0000       0.021816         0.5937 
 143   0.0000       0.024363         0.6630 
 144   0.0000       0.025652         0.6980 
 145   0.0000       0.026845         0.7305 
 146   0.0000       0.029183         0.7941 
 147   0.0000       0.030018         0.8168 
 148   0.0000       0.033376         0.9082 
 149   0.0000       0.035990         0.9793 
 150   0.0000       0.036856         1.0029 
 151   0.0000       0.038116         1.0372 
 152   0.0000       0.041853         1.1389 
 153   0.0000       0.044319         1.2060 
 154   0.0000       0.047941         1.3045 
 155   0.0000       0.049534         1.3479 
 156   0.0000       0.053832         1.4648 
 157   0.0000       0.056332         1.5329 
 158   0.0000       0.058712         1.5976 
 159   0.0000       0.061414         1.6712 
 160   0.0000       0.065014         1.7691 
 161   0.0000       0.067761         1.8439 
 162   0.0000       0.068930         1.8757 
 163   0.0000       0.071014         1.9324 
 164   0.0000       0.072074         1.9612 
 165   0.0000       0.075921         2.0659 
 166   0.0000       0.079329         2.1587 
 167   0.0000       0.080712         2.1963 
 168   0.0000       0.085520         2.3271 
 169   0.0000       0.086998         2.3673 
 170   0.0000       0.088617         2.4114 
 171   0.0000       0.091443         2.4883 
 172   0.0000       0.094584         2.5737 
 173   0.0000       0.095378         2.5954 
 174   0.0000       0.096576         2.6280 
 175   0.0000       0.097372         2.6496 
 176   0.0000       0.099992         2.7209 
 177   0.0000       0.102133         2.7792 
 178   0.0000       0.102481         2.7887 
 179   0.0000       0.106095         2.8870 
 180   0.0000       0.110140         2.9971 
 181   0.0000       0.111298         3.0286 
 182   0.0000       0.115154         3.1335 
 183   0.0000       0.117565         3.1991 
 184   0.0000       0.120089         3.2678 
 185   0.0000       0.121424         3.3041 
 186   0.0000       0.123185         3.3520 
 187   0.0000       0.125655         3.4192 
 188   0.0000       0.128166         3.4876 
 189   0.0000       0.129117         3.5135 
 190   0.0000       0.131950         3.5905 
 191   0.0000       0.132752         3.6124 
 192   0.0000       0.135270         3.6809 
 193   0.0000       0.137830         3.7506 
 194   0.0000       0.138751         3.7756 
 195   0.0000       0.141594         3.8530 
 196   0.0000       0.142652         3.8818 
 197   0.0000       0.146560         3.9881 
 198   0.0000       0.149344         4.0639 
 199   0.0000       0.151768         4.1298 
 200   0.0000       0.154216         4.1964 
 201   0.0000       0.155963         4.2440 
 202   0.0000       0.156358         4.2547 
 203   0.0000       0.157338         4.2814 
 204   0.0000       0.159384         4.3370 
 205   0.0000       0.161777         4.4022 
 206   0.0000       0.164174         4.4674 
 207   0.0000       0.164889         4.4869 
 208   0.0000       0.170325         4.6348 
 209   0.0000       0.172508         4.6942 
 210   0.0000       0.172702         4.6995 
 211   0.0000       0.175301         4.7702 
 212   0.0000       0.178069         4.8455 
 213   0.0000       0.179300         4.8790 
 214   0.0000       0.186072         5.0633 
 215   0.0000       0.187666         5.1066 
 216   0.0000       0.189228         5.1491 
 217   0.0000       0.190152         5.1743 
 218   0.0000       0.192528         5.2390 
 219   0.0000       0.195582         5.3221 
 220   0.0000       0.199041         5.4162 
 221   0.0000       0.204315         5.5597 
 222   0.0000       0.206891         5.6298 
 223   0.0000       0.208604         5.6764 
 224   0.0000       0.211471         5.7544 
 225   0.0000       0.212847         5.7919 
 226   0.0000       0.213330         5.8050 
 227   0.0000       0.214941         5.8488 
 228   0.0000       0.217633         5.9221 
 229   0.0000       0.219187         5.9644 
 230   0.0000       0.220808         6.0085 
 231   0.0000       0.223206         6.0737 
 232   0.0000       0.224246         6.1020 
 233   0.0000       0.224333         6.1044 
 234   0.0000       0.225835         6.1453 
 235   0.0000       0.231461         6.2984 
 236   0.0000       0.232134         6.3167 
 237   0.0000       0.232485         6.3262 
 238   0.0000       0.233960         6.3664 
 239   0.0000       0.234128         6.3710 
 240   0.0000       0.237625         6.4661 
 241   0.0000       0.241707         6.5772 
 242   0.0000       0.243442         6.6244 
 243   0.0000       0.244610         6.6562 
 244   0.0000       0.247611         6.7378 
 245   0.0000       0.248743         6.7686 
 246   0.0000       0.250425         6.8144 
 247   0.0000       0.251173         6.8348 
 248   0.0000       0.252833         6.8799 
 249   0.0000       0.256443         6.9782 
 250   0.0000       0.257500         7.0069 
 251   0.0000       0.259537         7.0624 
 252   0.0000       0.261552         7.1172 
 253   0.0000       0.261993         7.1292 
 254   0.0000       0.263120         7.1599 
 255   0.0000       0.265653         7.2288 
 256   0.0000       0.268029         7.2934 
 257   0.0000       0.268850         7.3158 
 258   0.0000       0.271258         7.3813 
 259   0.0000       0.272467         7.4142 
 260   0.0000       0.274161         7.4603 
 261   0.0000       0.275788         7.5046 
 262   0.0000       0.277219         7.5435 
 263   0.0000       0.280117         7.6224 
 264   0.0000       0.281772         7.6674 
 265   0.0000       0.283219         7.7068 
 266   0.0000       0.285976         7.7818 
 267   0.0000       0.286788         7.8039 
 268   0.0000       0.288320         7.8456 
 269   0.0000       0.288728         7.8567 
 270   0.0000       0.291828         7.9410 
 271   0.0000       0.294260         8.0072 
 272   0.0000       0.295923         8.0525 
 273   0.0000       0.296960         8.0807 
 274   0.0000       0.299683         8.1548 
 275   0.0000       0.302314         8.2264 
 276   0.0000       0.302955         8.2438 
 277   0.0000       0.305780         8.3207 
 278   0.0000       0.307492         8.3673 
 279   0.0000       0.308622         8.3980 
 280   0.0000       0.309804         8.4302 
 281   0.0000       0.312187         8.4950 
 282   0.0000       0.313069         8.5190 
 283   0.0000       0.314073         8.5463 
 284   0.0000       0.317205         8.6316 
 285   0.0000       0.319256         8.6874 
 286   0.0000       0.321987         8.7617 
 287   0.0000       0.324609         8.8331 
 288   0.0000       0.325303         8.8520 
 289   0.0000       0.328286         8.9331 
 290   0.0000       0.330473         8.9926 
 291   0.0000       0.332225         9.0403 
 292   0.0000       0.334278         9.0962 
 293   0.0000       0.335802         9.1376 
 294   0.0000       0.338002         9.1975 
 295   0.0000       0.339013         9.2250 
 296   0.0000       0.341411         9.2903 
 297   0.0000       0.345800         9.4097 
 298   0.0000       0.346807         9.4371 
 299   0.0000       0.347844         9.4653 
 300   0.0000       0.348337         9.4787 
 301   0.0000       0.351110         9.5542 
 302   0.0000       0.353462         9.6182 
 303   0.0000       0.353565         9.6210 
 304   0.0000       0.356573         9.7028 
 305   0.0000       0.358398         9.7525 
 306   0.0000       0.359564         9.7842 
 307   0.0000       0.361380         9.8336 
 308   0.0000       0.362859         9.8739 
 309   0.0000       0.366504         9.9731 
 310   0.0000       0.366978         9.9860 
 311   0.0000       0.369439        10.0529 
 312   0.0000       0.370036        10.0692 
 313   0.0000       0.373236        10.1563 
 314   0.0000       0.373838        10.1727 
 315   0.0000       0.374239        10.1836 
 316   0.0000       0.377084        10.2610 
 317   0.0000       0.378449        10.2981 
 318   0.0000       0.380433        10.3521 
 319   0.0000       0.381444        10.3796 
 320   0.0000       0.384296        10.4572 
 321   0.0000       0.385908        10.5011 
 322   0.0000       0.388355        10.5677 
 323   0.0000       0.388482        10.5711 
 324   0.0000       0.390000        10.6125 
 325   0.0000       0.392823        10.6893 
 326   0.0000       0.395168        10.7531 
 327   0.0000       0.396561        10.7910 
 328   0.0000       0.398349        10.8396 
 329   0.0000       0.400786        10.9060 
 330   0.0000       0.404940        11.0190 
 331   0.0000       0.405671        11.0389 
 332   0.0000       0.406079        11.0500 
 333   0.0000       0.408451        11.1145 
 334   0.0000       0.410925        11.1818 
 335   0.0000       0.411485        11.1971 
 336   0.0000       0.416164        11.3244 
 337   0.0000       0.417993        11.3742 
 338   0.0000       0.418698        11.3934 
 339   0.0000       0.420315        11.4374 
 340   0.0000       0.423758        11.5311 
 341   0.0000       0.424922        11.5627 
 342   0.0000       0.427936        11.6447 
 343   0.0000       0.430131        11.7044 
 344   0.0000       0.433718        11.8021 
 345   0.0000       0.434559        11.8249 
 346   0.0000       0.435451        11.8492 
 347   0.0000       0.438036        11.9196 
 348   0.0000       0.441519        12.0143 
 349   0.0000       0.443455        12.0670 
 350   0.0000       0.444741        12.1020 
 351   0.0000       0.448540        12.2054 
 352   0.0000       0.448700        12.2097 
 353   0.0000       0.451485        12.2855 
 354   0.0000       0.452670        12.3178 
 355   0.0000       0.454766        12.3748 
 356   0.0000       0.456134        12.4120 
 357   0.0000       0.457779        12.4568 
 358   0.0000       0.460683        12.5358 
 359   0.0000       0.462606        12.5881 
 360   0.0000       0.465217        12.6592 
 361   0.0000       0.467127        12.7112 
 362   0.0000       0.469795        12.7838 
 363   0.0000       0.470516        12.8034 
 364   0.0000       0.471644        12.8341 
 365   0.0000       0.474271        12.9056 
 366   0.0000       0.477787        13.0012 
 367   0.0000       0.479355        13.0439 
 368   0.0000       0.480136        13.0652 
 369   0.0000       0.481896        13.1131 
 370   0.0000       0.484515        13.1843 
 371   0.0000       0.486939        13.2503 
 372   0.0000       0.488911        13.3039 
 373   0.0000       0.490186        13.3386 
 374   0.0000       0.492028        13.3888 
 375   0.0000       0.494264        13.4496 
 376   0.0000       0.497851        13.5472 
 377   0.0000       0.500455        13.6181 
 378   0.0000       0.503531        13.7018 
 379   0.0000       0.504211        13.7203 
 380   0.0000       0.506309        13.7774 
 381   0.0000       0.510539        13.8925 
 382   0.0000       0.511133        13.9086 
 383   0.0000       0.513342        13.9687 
 384   0.0000       0.514031        13.9875 
 385   0.0000       0.515939        14.0394 
 386   0.0000       0.518552        14.1105 
 387   0.0000       0.519639        14.1401 
 388   0.0000       0.521785        14.1985 
 389   0.0000       0.525885        14.3101 
 390   0.0000       0.527932        14.3658 
 391   0.0000       0.529300        14.4030 
 392   0.0000       0.531918        14.4742 
 393   0.0000       0.533867        14.5273 
 394   0.0000       0.536633        14.6025 
 395   0.0000       0.539577        14.6826 
 396   0.0000       0.541802        14.7432 
 397   0.0000       0.544336        14.8121 
 398   0.0000       0.545759        14.8509 
 399   0.0000       0.548410        14.9230 
 400   0.0000       0.550587        14.9822 
 401   0.0000       0.551493        15.0069 
 402   0.0000       0.553668        15.0661 
 403   0.0000       0.556574        15.1451 
 404   0.0000       0.561562        15.2809 
 405   0.0000       0.564810        15.3693 
 406   0.0000       0.565828        15.3970 
 407   0.0000       0.567444        15.4409 
 408   0.0000       0.570401        15.5214 
 409   0.0000       0.572485        15.5781 
 410   0.0000       0.574736        15.6394 
 411   0.0000       0.575103        15.6494 
 412   0.0000       0.579281        15.7630 
 413   0.0000       0.581801        15.8316 
 414   0.0000       0.582884        15.8611 
 415   0.0000       0.583148        15.8683 
 416   0.0000       0.584434        15.9033 
 417   0.0000       0.587920        15.9981 
 418   0.0000       0.588429        16.0120 
 419   0.0000       0.590056        16.0562 
 420   0.0000       0.592292        16.1171 
 421   0.0000       0.595999        16.2179 
 422   0.0000       0.596681        16.2365 
 423   0.0000       0.597984        16.2720 
 424   0.0000       0.599195        16.3049 
 425   0.0000       0.602363        16.3911 
 426   0.0000       0.604443        16.4477 
 427   0.0000       0.607641        16.5348 
 428   0.0000       0.608597        16.5608 
 429   0.0000       0.609704        16.5909 
 430   0.0000       0.610764        16.6197 
 431   0.0000       0.612012        16.6537 
 432   0.0000       0.615555        16.7501 
 433   0.0000       0.616625        16.7792 
 434   0.0000       0.618361        16.8265 
 435   0.0000       0.620881        16.8950 
 436   0.0000       0.624510        16.9938 
 437   0.0000       0.625472        17.0200 
 438   0.0000       0.626529        17.0487 
 439   0.0000       0.628674        17.1071 
 440   0.0000       0.629515        17.1300 
 441   0.0000       0.630225        17.1493 
 442   0.0000       0.631545        17.1852 
 443   0.0000       0.633006        17.2250 
 444   0.0000       0.636514        17.3204 
 445   0.0000       0.636907        17.3311 
 446   0.0000       0.640756        17.4359 
 447   0.0000       0.642268        17.4770 
 448   0.0000       0.644038        17.5252 
 449   0.0000       0.645478        17.5644 
 450   0.0000       0.648565        17.6483 
 451   0.0000       0.650061        17.6890 
 452   0.0000       0.650748        17.7078 
 453   0.0000       0.652262        17.7489 
 454   0.0000       0.653972        17.7955 
 455   0.0000       0.656086        17.8530 
 456   0.0000       0.657856        17.9012 
 457   0.0000       0.660560        17.9747 
 458   0.0000       0.661398        17.9976 
 459   0.0000       0.663892        18.0654 
 460   0.0000       0.665318        18.1042 
 461   0.0000       0.667426        18.1616 
 462   0.0000       0.667674        18.1683 
 463   0.0000       0.669295        18.2124 
 464   0.0000       0.671949        18.2847 
 465   0.0000       0.673467        18.3260 
 466   0.0000       0.676631        18.4121 
 467   0.0000       0.677924        18.4472 
 468   0.0000       0.679361        18.4863 
 469   0.0000       0.681118        18.5342 
 470   0.0000       0.682155        18.5624 
 471   0.0000       0.683230        18.5916 
 472   0.0000       0.684760        18.6333 
 473   0.0000       0.686650        18.6847 
 474   0.0000       0.689206        18.7542 
 475   0.0000       0.690208        18.7815 
 476   0.0000       0.691377        18.8133 
 477   0.0000       0.693282        18.8652 
 478   0.0000       0.694873        18.9085 
 479   0.0000       0.696625        18.9561 
 480   0.0000       0.697175        18.9711 
 481   0.0000       0.700381        19.0583 
 482   0.0000       0.701374        19.0853 
 483   0.0000       0.705186        19.1891 
 484   0.0000       0.706182        19.2162 
 485   0.0000       0.707005        19.2386 
 486   0.0000       0.709203        19.2984 
 487   0.0000       0.710852        19.3433 
 488   0.0000       0.712827        19.3970 
 489   0.0000       0.713955        19.4277 
 490   0.0000       0.715571        19.4717 
 491   0.0000       0.717809        19.5326 
 492   0.0000       0.718901        19.5623 
 493   0.0000       0.722989        19.6735 
 494   0.0000       0.724251        19.7079 
 495   0.0000       0.727177        19.7875 
 496   0.0000       0.728466        19.8226 
 497   0.0000       0.730103        19.8671 
 498   0.0000       0.731160        19.8959 
 499   0.0000       0.732912        19.9435 
 500   0.0000       0.734037        19.9742 
 501   0.0000       0.736069        20.0295 
 502   0.0000       0.737887        20.0789 
 503   0.0000       0.741255        20.1706 
 504   0.0000       0.743280        20.2257 
 505   0.0000       0.744639        20.2627 
 506   0.0000       0.746194        20.3050 
 507   0.0000       0.747762        20.3476 
 508   0.0000       0.750803        20.4304 
 509   0.0000       0.751988        20.4626 
 510   0.0000       0.753659        20.5081 
 511   0.0000       0.755783        20.5659 
 512   0.0000       0.758203        20.6317 
 513   0.0000       0.759582        20.6693 
 514   0.0000       0.762061        20.7367 
 515   0.0000       0.765098        20.8194 
 516   0.0000       0.768466        20.9110 
 517   0.0000       0.770069        20.9546 
 518   0.0000       0.770487        20.9660 
 519   0.0000       0.770750        20.9732 
 520   0.0000       0.772620        21.0241 
 521   0.0000       0.773081        21.0366 
 522   0.0000       0.776110        21.1190 
 523   0.0000       0.778717        21.1900 
 524   0.0000       0.779963        21.2239 
 525   0.0000       0.783370        21.3166 
 526   0.0000       0.785498        21.3745 
 527   0.0000       0.787828        21.4379 
 528   0.0000       0.788975        21.4691 
 529   0.0000       0.789503        21.4835 
 530   0.0000       0.792206        21.5570 
 531   0.0000       0.794169        21.6104 
 532   0.0000       0.795275        21.6405 
 533   0.0000       0.798275        21.7222 
 534   0.0000       0.799049        21.7432 
 535   0.0000       0.802274        21.8310 
 536   0.0000       0.805537        21.9198 
 537   0.0000       0.806998        21.9595 
 538   0.0000       0.811336        22.0776 
 539   0.0000       0.812865        22.1192 
 540   0.0000       0.814391        22.1607 
 541   0.0000       0.815447        22.1894 
 542   0.0000       0.819211        22.2919 
 543   0.0000       0.820125        22.3167 
 544   0.0000       0.822066        22.3695 
 545   0.0000       0.825345        22.4588 
 546   0.0000       0.827680        22.5223 
 547   0.0000       0.828407        22.5421 
 548   0.0000       0.831319        22.6213 
 549   0.0000       0.832139        22.6437 
 550   0.0000       0.834016        22.6947 
 551   0.0000       0.837750        22.7963 
 552   0.0000       0.839117        22.8335 
 553   0.0000       0.840412        22.8688 
 554   0.0000       0.842795        22.9336 
 555   0.0000       0.846811        23.0429 
 556   0.0000       0.848391        23.0859 
 557   0.0000       0.849468        23.1152 
 558   0.0000       0.850441        23.1417 
 559   0.0000       0.852557        23.1993 
 560   0.0000       0.856747        23.3133 
 561   0.0000       0.862096        23.4588 
 562   0.0000       0.863096        23.4860 
 563   0.0000       0.865821        23.5602 
 564   0.0000       0.867530        23.6067 
 565   0.0000       0.870130        23.6774 
 566   0.0000       0.871420        23.7125 
 567   0.0000       0.874921        23.8078 
 568   0.0000       0.877297        23.8725 
 569   0.0000       0.878902        23.9161 
 570   0.0000       0.881141        23.9771 
 571   0.0000       0.883604        24.0441 
 572   0.0000       0.886250        24.1161 
 573   0.0000       0.891467        24.2581 
 574   0.0000       0.893616        24.3165 
 575   0.0000       0.896965        24.4077 
 576   0.0000       0.898227        24.4420 
 577   0.0000       0.901869        24.5411 
 578   0.0000       0.905491        24.6397 
 579   0.0000       0.908141        24.7118 
 580   0.0000       0.914586        24.8871 
 581   0.0000       0.915938        24.9239 
 582   0.0000       0.917490        24.9662 
 583   0.0000       0.922035        25.0899 
 584   0.0000       0.923304        25.1244 
 585   0.0000       0.927912        25.2498 
 586   0.0000       0.929202        25.2849 
 587   0.0000       0.935256        25.4496 
 588   0.0000       0.938491        25.5376 
 589   0.0000       0.940425        25.5903 
 590   0.0000       0.941482        25.6190 
 591   0.0000       0.942332        25.6421 
 592   0.0000       0.947480        25.7823 
 593   0.0000       0.949748        25.8439 
 594   0.0000       0.952378        25.9155 
 595   0.0000       0.953561        25.9477 
 596   0.0000       0.956689        26.0328 
 597   0.0000       0.960443        26.1350 
 598   0.0000       0.962899        26.2018 
 599   0.0000       0.966195        26.2915 
 600   0.0000       0.966997        26.3133 
 601   0.0000       0.975339        26.5403 
 602   0.0000       0.978015        26.6131 
 603   0.0000       0.981284        26.7021 
 604   0.0000       0.982959        26.7477 
 605   0.0000       0.984049        26.7773 
 606   0.0000       0.989342        26.9214 
 607   0.0000       0.993088        27.0233 
 608   0.0000       0.995742        27.0955 
 609   0.0000       0.997926        27.1549 
 610   0.0000       0.999387        27.1947 
 611   0.0000       1.004036        27.3212 
 612   0.0000       1.005900        27.3719 
 613   0.0000       1.010399        27.4944 
 614   0.0000       1.012445        27.5500 
 615   0.0000       1.016666        27.6649 
 616   0.0000       1.017765        27.6948 
 617   0.0000       1.024481        27.8775 
 618   0.0000       1.027290        27.9540 
 619   0.0000       1.028845        27.9963 
 620   0.0000       1.031441        28.0669 
 621   0.0000       1.032945        28.1079 
 622   0.0000       1.042480        28.3673 
 623   0.0000       1.043927        28.4067 
 624   0.0000       1.045482        28.4490 
 625   0.0000       1.048357        28.5273 
 626   0.0000       1.050321        28.5807 
 627   0.0000       1.052912        28.6512 
 628   0.0000       1.056867        28.7588 
 629   0.0000       1.063432        28.9374 
 630   0.0000       1.066758        29.0280 
 631   0.0000       1.072955        29.1966 
 632   0.0000       1.075694        29.2711 
 633   0.0000       1.078847        29.3569 
 634   0.0000       1.080922        29.4134 
 635   0.0000       1.082345        29.4521 
 636   0.0000       1.086995        29.5786 
 637   0.0000       1.088085        29.6083 
 638   0.0000       1.093354        29.7517 
 639   0.0000       1.097431        29.8626 
 640   0.0000       1.102051        29.9883 
 641   0.0000       1.104257        30.0483 
 642   0.0000       1.107471        30.1358 
 643   0.0000       1.112555        30.2742 
 644   0.0000       1.113841        30.3092 
 645   0.0000       1.119170        30.4542 
 646   0.0000       1.121435        30.5158 
 647   0.0000       1.121571        30.5195 
 648   0.0000       1.126333        30.6491 
 649   0.0000       1.134928        30.8830 
 650   0.0000       1.137456        30.9517 
 651   0.0000       1.137992        30.9663 
 652   0.0000       1.142629        31.0925 
 653   0.0000       1.145340        31.1663 
 654   0.0000       1.149241        31.2724 
 655   0.0000       1.157257        31.4906 
 656   0.0000       1.159331        31.5470 
 657   0.0000       1.164936        31.6995 
 658   0.0000       1.167917        31.7806 
 659   0.0000       1.168804        31.8048 
 660   0.0000       1.169786        31.8315 
 661   0.0000       1.174847        31.9692 
 662   0.0000       1.179978        32.1088 
 663   0.0000       1.180526        32.1237 
 664   0.0000       1.183508        32.2049 
 665   0.0000       1.187618        32.3167 
 666   0.0000       1.191158        32.4131 
 667   0.0000       1.196865        32.5684 
 668   0.0000       1.198113        32.6023 
 669   0.0000       1.198775        32.6203 
 670   0.0000       1.203065        32.7371 
 671   0.0000       1.209416        32.9099 
 672   0.0000       1.212725        32.9999 
 673   0.0000       1.215025        33.0625 
 674   0.0000       1.217624        33.1332 
 675   0.0000       1.219657        33.1885 
 676   0.0000       1.223548        33.2944 
 677   0.0000       1.225789        33.3554 
 678   0.0000       1.230833        33.4927 
 679   0.0000       1.232070        33.5263 
 680   0.0000       1.237278        33.6680 
 681   0.0000       1.238501        33.7013 
 682   0.0000       1.242580        33.8123 
 683   0.0000       1.244779        33.8722 
 684   0.0000       1.252689        34.0874 
 685   0.0000       1.255147        34.1543 
 686   0.0000       1.258238        34.2384 
 687   0.0000       1.261323        34.3223 
 688   0.0000       1.266324        34.4584 
 689   0.0000       1.268751        34.5245 
 690   0.0000       1.273825        34.6625 
 691   0.0000       1.275413        34.7058 
 692   0.0000       1.280731        34.8505 
 693   0.0000       1.283268        34.9195 
 694   0.0000       1.284374        34.9496 
 695   0.0000       1.287321        35.0298 
 696   0.0000       1.289453        35.0878 
 697   0.0000       1.294410        35.2227 
 698   0.0000       1.300590        35.3909 
 699   0.0000       1.305215        35.5167 
 700   0.0000       1.309948        35.6455 
 701   0.0000       1.311684        35.6927 
 702   0.0000       1.317573        35.8530 
 703   0.0000       1.319907        35.9165 
 704   0.0000       1.323099        36.0034 
 705   0.0000       1.325176        36.0599 
 706   0.0000       1.328332        36.1457 
 707   0.0000       1.330580        36.2069 
 708   0.0000       1.333573        36.2884 
 709   0.0000       1.337637        36.3989 
 710   0.0000       1.340612        36.4799 
 711   0.0000       1.341151        36.4946 
 712   0.0000       1.347970        36.6801 
 713   0.0000       1.349366        36.7181 
 714   0.0000       1.353624        36.8340 
 715   0.0000       1.355288        36.8793 
 716   0.0000       1.359203        36.9858 
 717   0.0000       1.361141        37.0385 
 718   0.0000       1.363493        37.1025 
 719   0.0000       1.369629        37.2695 
 720   0.0000       1.371444        37.3189 
 721   0.0000       1.375885        37.4397 
 722   0.0000       1.378818        37.5196 
 723   0.0000       1.382160        37.6105 
 724   0.0000       1.384447        37.6727 
 725   0.0000       1.389402        37.8075 
 726   0.0000       1.392579        37.8940 
 727   0.0000       1.397583        38.0302 
 728   0.0000       1.398049        38.0429 
 729   0.0000       1.401693        38.1420 
 730   0.0000       1.405257        38.2390 
 731   0.0000       1.407398        38.2973 
 732   0.0000       1.411042        38.3964 
 733   0.0000       1.413049        38.4510 
 734   0.0000       1.413998        38.4769 
 735   0.0000       1.419637        38.6303 
 736   0.0000       1.424864        38.7725 
 737   0.0000       1.427316        38.8392 
 738   0.0000       1.429681        38.9036 
 739   0.0000       1.431230        38.9457 
 740   0.0000       1.434812        39.0432 
[...]
      px      :     0.121872
      py      :     0.140821
      dz2     :     0.002904  d :     0.030194
      dxz     :     0.002299
      dyz     :     0.007352
      dx2y2   :     0.009450
      dxy     :     0.008190
 45 H s       :     0.706828  s :     0.706828
      pz      :     0.119071  p :     0.314028
      px      :     0.101504
      py      :     0.093453
      dz2     :     0.008671  d :     0.029979
      dxz     :     0.008303
      dyz     :     0.006087
      dx2y2   :     0.003372
      dxy     :     0.003546
 46 H s       :     0.699255  s :     0.699255
      pz      :     0.092106  p :     0.353640
      px      :     0.128335
      py      :     0.133199
      dz2     :     0.003210  d :     0.030199
      dxz     :     0.003510
      dyz     :     0.006650
      dx2y2   :     0.009290
      dxy     :     0.007539
 47 H s       :     0.698540  s :     0.698540
      pz      :     0.143467  p :     0.348576
      px      :     0.110020
      py      :     0.095089
      dz2     :     0.008069  d :     0.030153
      dxz     :     0.007741
      dyz     :     0.005819
      dx2y2   :     0.003751
      dxy     :     0.004773
 48 H s       :     0.709023  s :     0.709023
      pz      :     0.084636  p :     0.310637
      px      :     0.087538
      py      :     0.138463
      dz2     :     0.002614  d :     0.029871
      dxz     :     0.000287
      dyz     :     0.009374
      dx2y2   :     0.007767
      dxy     :     0.009830
 49 H s       :     0.709222  s :     0.709222
      pz      :     0.131565  p :     0.312801
      px      :     0.086203
      py      :     0.095033
      dz2     :     0.010336  d :     0.030231
      dxz     :     0.008541
      dyz     :     0.008219
      dx2y2   :     0.001726
      dxy     :     0.001408
 50 H s       :     0.680656  s :     0.680656
      pz      :     0.110435  p :     0.366344
      px      :     0.135790
      py      :     0.120119
      dz2     :     0.005298  d :     0.030336
      dxz     :     0.007168
      dyz     :     0.002999
      dx2y2   :     0.008155
      dxy     :     0.006717
 51 H s       :     0.704647  s :     0.704647
      pz      :     0.087169  p :     0.317862
      px      :     0.094369
      py      :     0.136324
      dz2     :     0.003182  d :     0.030154
      dxz     :     0.001117
      dyz     :     0.008213
      dx2y2   :     0.009200
      dxy     :     0.008442
 52 H s       :     0.705728  s :     0.705728
      pz      :     0.104748  p :     0.334639
      px      :     0.136575
      py      :     0.093315
      dz2     :     0.005158  d :     0.030075
      dxz     :     0.008266
      dyz     :     0.001453
      dx2y2   :     0.007241
      dxy     :     0.007957
 53 H s       :     0.699504  s :     0.699504
      pz      :     0.147966  p :     0.347021
      px      :     0.091751
      py      :     0.107304
      dz2     :     0.010924  d :     0.030546
      dxz     :     0.009721
      dyz     :     0.009080
      dx2y2   :     0.000424
      dxy     :     0.000397
 54 H s       :     0.705525  s :     0.705525
      pz      :     0.095510  p :     0.316651
      px      :     0.088332
      py      :     0.132808
      dz2     :     0.003589  d :     0.030180
      dxz     :     0.001625
      dyz     :     0.008268
      dx2y2   :     0.008255
      dxy     :     0.008444
 55 H s       :     0.697524  s :     0.697524
      pz      :     0.106903  p :     0.385927
      px      :     0.124608
      py      :     0.154416
      dz2     :     0.006059  d :     0.030487
      dxz     :     0.007439
      dyz     :     0.004403
      dx2y2   :     0.006908
      dxy     :     0.005678
 56 H s       :     0.700682  s :     0.700682
      pz      :     0.108108  p :     0.345957
      px      :     0.143245
      py      :     0.094603
      dz2     :     0.006178  d :     0.030151
      dxz     :     0.008430
      dyz     :     0.003109
      dx2y2   :     0.005705
      dxy     :     0.006729
 57 H s       :     0.708994  s :     0.708994
      pz      :     0.086241  p :     0.310004
      px      :     0.087273
      py      :     0.136490
      dz2     :     0.003381  d :     0.029845
      dxz     :     0.000430
      dyz     :     0.008707
      dx2y2   :     0.007654
      dxy     :     0.009674
 58 H s       :     0.679527  s :     0.679527
      pz      :     0.095434  p :     0.362664
      px      :     0.139604
      py      :     0.127626
      dz2     :     0.003830  d :     0.030249
      dxz     :     0.006943
      dyz     :     0.002646
      dx2y2   :     0.009327
      dxy     :     0.007503
 59 H s       :     0.705366  s :     0.705366
      pz      :     0.140796  p :     0.322924
      px      :     0.094878
      py      :     0.087250
      dz2     :     0.010956  d :     0.030193
      dxz     :     0.009499
      dyz     :     0.008784
      dx2y2   :     0.000558
      dxy     :     0.000396
 60 H s       :     0.705272  s :     0.705272
      pz      :     0.084375  p :     0.315917
      px      :     0.097748
      py      :     0.133795
      dz2     :     0.003203  d :     0.030111
      dxz     :     0.001698
      dyz     :     0.007605
      dx2y2   :     0.009343
      dxy     :     0.008261
 61 H s       :     0.697892  s :     0.697892
      pz      :     0.152011  p :     0.352329
      px      :     0.098464
      py      :     0.101853
      dz2     :     0.010080  d :     0.030262
      dxz     :     0.009598
      dyz     :     0.008407
      dx2y2   :     0.000928
      dxy     :     0.001250
 62 H s       :     0.700218  s :     0.700218
      pz      :     0.113495  p :     0.340249
      px      :     0.127861
      py      :     0.098893
      dz2     :     0.007182  d :     0.030159
      dxz     :     0.007802
      dyz     :     0.003326
      dx2y2   :     0.005709
      dxy     :     0.006140
 63 H s       :     0.706417  s :     0.706417
      pz      :     0.090591  p :     0.314414
      px      :     0.085031
      py      :     0.138793
      dz2     :     0.002680  d :     0.030087
      dxz     :     0.000442
      dyz     :     0.009365
      dx2y2   :     0.008102
      dxy     :     0.009498
 64 H s       :     0.701656  s :     0.701656
      pz      :     0.113114  p :     0.347704
      px      :     0.140605
      py      :     0.093986
      dz2     :     0.007770  d :     0.030111
      dxz     :     0.007814
      dyz     :     0.003942
      dx2y2   :     0.005265
      dxy     :     0.005319
 65 H s       :     0.698222  s :     0.698222
      pz      :     0.096224  p :     0.378632
      px      :     0.128434
      py      :     0.153974
      dz2     :     0.003831  d :     0.030555
      dxz     :     0.007608
      dyz     :     0.003110
      dx2y2   :     0.008819
      dxy     :     0.007188


                      *****************************
                      * MAYER POPULATION ANALYSIS *
                      *****************************

  NA   - Mulliken gross atomic population
  ZA   - Total nuclear charge
  QA   - Mulliken gross atomic charge
  VA   - Mayer's total valence
  BVA  - Mayer's bonded valence
  FA   - Mayer's free valence

  ATOM       NA         ZA         QA         VA         BVA        FA
  0 Ru    17.5243    16.0000    -1.5243     5.5275     5.5275    -0.0000
  1 Se    34.2833    34.0000    -0.2833     2.3908     2.3908    -0.0000
  2 P     13.6965    15.0000     1.3035     3.1248     3.1248    -0.0000
  3 P     13.8798    15.0000     1.1202     3.4507     3.4507     0.0000
  4 P     14.0014    15.0000     0.9986     3.4343     3.4343     0.0000
  5 P     14.1126    15.0000     0.8874     3.8090     3.8090    -0.0000
  6 C      5.5685     6.0000     0.4315     2.6427     2.6427    -0.0000
  7 C      6.5496     6.0000    -0.5496     3.3287     3.3287     0.0000
  8 C      6.2267     6.0000    -0.2267     3.4669     3.4669     0.0000
  9 C      6.1904     6.0000    -0.1904     3.3681     3.3681     0.0000
 10 C      6.6580     6.0000    -0.6580     3.3298     3.3298     0.0000
 11 C      5.4430     6.0000     0.5570     2.6177     2.6177     0.0000
 12 C      6.8985     6.0000    -0.8985     4.0230     4.0230    -0.0000
 13 C      6.7460     6.0000    -0.7460     4.0697     4.0697     0.0000
 14 C      6.7079     6.0000    -0.7079     4.3145     4.3145    -0.0000
 15 C      6.8273     6.0000    -0.8273     4.0106     4.0106     0.0000
 16 C      6.6544     6.0000    -0.6544     4.2299     4.2299    -0.0000
 17 C      6.6548     6.0000    -0.6548     4.1106     4.1106    -0.0000
 18 C      6.4707     6.0000    -0.4707     4.2138     4.2138    -0.0000
 19 C      6.7080     6.0000    -0.7080     4.0722     4.0722    -0.0000
 20 C      6.6605     6.0000    -0.6605     4.0829     4.0829     0.0000
 21 C      6.5614     6.0000    -0.5614     4.1823     4.1823     0.0000
 22 C      6.7458     6.0000    -0.7458     4.0717     4.0717     0.0000
 23 C      6.4555     6.0000    -0.4555     3.8995     3.8995     0.0000
 24 H      1.0037     1.0000    -0.0037     0.7891     0.7891    -0.0000
 25 H      0.9257     1.0000     0.0743     0.9881     0.9881     0.0000
 26 H      0.9308     1.0000     0.0692     0.9788     0.9788     0.0000
 27 H      0.9210     1.0000     0.0790     0.9830     0.9830     0.0000
 28 H      0.9453     1.0000     0.0547     1.0018     1.0018     0.0000
 29 H      0.9136     1.0000     0.0864     1.2039     1.2039    -0.0000
 30 H      0.8706     1.0000     0.1294     1.0673     1.0673    -0.0000
 31 H      0.8144     1.0000     0.1856     1.0308     1.0308    -0.0000
 32 H      0.7843     1.0000     0.2157     1.0573     1.0573    -0.0000
 33 H      0.8111     1.0000     0.1889     1.0425     1.0425     0.0000
 34 H      0.8293     1.0000     0.1707     1.1436     1.1436     0.0000
 35 H      0.7905     1.0000     0.2095     1.0719     1.0719     0.0000
 36 H      0.8529     1.0000     0.1471     1.0741     1.0741    -0.0000
 37 H      0.8225     1.0000     0.1775     1.0658     1.0658    -0.0000
 38 H      0.9150     1.0000     0.0850     1.1496     1.1496    -0.0000
 39 H      0.7971     1.0000     0.2029     1.0119     1.0119    -0.0000
 40 H      0.8496     1.0000     0.1504     1.1245     1.1245     0.0000
 41 H      0.8443     1.0000     0.1557     1.0871     1.0871     0.0000
 42 H      0.8266     1.0000     0.1734     1.0966     1.0966    -0.0000
 43 H      0.8292     1.0000     0.1708     1.0796     1.0796    -0.0000
 44 H      0.8735     1.0000     0.1265     1.1058     1.1058    -0.0000
 45 H      0.8154     1.0000     0.1846     1.0851     1.0851    -0.0000
 46 H      0.8833     1.0000     0.1167     1.1197     1.1197    -0.0000
 47 H      0.8247     1.0000     0.1753     1.1264     1.1264    -0.0000
 48 H      0.8114     1.0000     0.1886     1.0247     1.0247    -0.0000
 49 H      0.9281     1.0000     0.0719     1.0961     1.0961    -0.0000
 50 H      0.8766     1.0000     0.1234     1.2483     1.2483     0.0000
 51 H      0.8072     1.0000     0.1928     1.0397     1.0397    -0.0000
 52 H      0.8582     1.0000     0.1418     1.1197     1.1197     0.0000
 53 H      0.8263     1.0000     0.1737     1.0450     1.0450    -0.0000
 54 H      0.7972     1.0000     0.2028     1.0645     1.0645     0.0000
 55 H      0.8153     1.0000     0.1847     1.1615     1.1615     0.0000
 56 H      0.8577     1.0000     0.1423     1.1022     1.1022     0.0000
 57 H      0.8083     1.0000     0.1917     1.0276     1.0276     0.0000
 58 H      0.8408     1.0000     0.1592     1.2248     1.2248     0.0000
 59 H      0.9187     1.0000     0.0813     1.1233     1.1233     0.0000
 60 H      0.8086     1.0000     0.1914     1.0953     1.0953     0.0000
 61 H      0.8284     1.0000     0.1716     1.0684     1.0684    -0.0000
 62 H      0.8026     1.0000     0.1974     1.0960     1.0960    -0.0000
 63 H      0.7978     1.0000     0.2022     1.0389     1.0389     0.0000
 64 H      0.8803     1.0000     0.1197     1.1296     1.1296     0.0000
 65 H      0.8370     1.0000     0.1630     1.1619     1.1619     0.0000

  Mayer bond orders larger than 0.100000
B(  0-Ru,  1-Se) :   0.6750 B(  0-Ru,  2-P ) :   0.5657 B(  0-Ru,  3-P ) :   0.6117 
B(  0-Ru,  4-P ) :   0.6553 B(  0-Ru,  5-P ) :   0.7356 B(  0-Ru, 12-C ) :   0.1392 
B(  0-Ru, 13-C ) :   0.1256 B(  0-Ru, 14-C ) :   0.2070 B(  0-Ru, 15-C ) :   0.1134 
B(  0-Ru, 16-C ) :   0.1607 B(  0-Ru, 17-C ) :   0.1122 B(  0-Ru, 18-C ) :   0.1366 
B(  0-Ru, 21-C ) :   0.1283 B(  0-Ru, 24-H ) :   0.7980 B(  0-Ru, 29-H ) :   0.3938 
B(  1-Se,  3-P ) :  -0.2561 B(  1-Se,  4-P ) :   0.2347 B(  1-Se,  5-P ) :   0.2024 
B(  1-Se,  6-C ) :   0.8371 B(  1-Se, 11-C ) :   0.1761 B(  1-Se, 15-C ) :   0.1620 
B(  1-Se, 23-C ) :  -0.1144 B(  1-Se, 24-H ) :  -0.1385 B(  1-Se, 29-H ) :   0.2684 
B(  2-P ,  3-P ) :   0.4292 B(  2-P ,  5-P ) :   0.2523 B(  2-P , 12-C ) :   0.4488 
B(  2-P , 13-C ) :   0.6453 B(  2-P , 14-C ) :   0.7400 B(  2-P , 24-H ) :  -0.1353 
B(  3-P ,  4-P ) :   0.1263 B(  3-P ,  5-P ) :   0.1113 B(  3-P , 15-C ) :   0.6277 
B(  3-P , 16-C ) :   0.6674 B(  3-P , 17-C ) :   0.5410 B(  3-P , 24-H ) :   0.1540 
B(  4-P ,  5-P ) :   0.2004 B(  4-P , 18-C ) :   0.7268 B(  4-P , 19-C ) :   0.6084 
B(  4-P , 20-C ) :   0.7384 B(  4-P , 50-H ) :   0.1325 B(  5-P , 21-C ) :   0.7886 
B(  5-P , 22-C ) :   0.5732 B(  5-P , 23-C ) :   0.6747 B(  5-P , 58-H ) :   0.1018 
B(  5-P , 65-H ) :   0.1173 B(  6-C ,  7-C ) :   0.9472 B(  6-C , 11-C ) :   1.1751 
B(  6-C , 29-H ) :  -0.1298 B(  7-C ,  8-C ) :   1.2764 B(  7-C , 10-C ) :   0.1464 
B(  7-C , 11-C ) :  -0.1173 B(  7-C , 25-H ) :   1.0097 B(  8-C ,  9-C ) :   1.2115 
B(  8-C , 26-H ) :   1.0889 B(  9-C , 10-C ) :   1.2332 B(  9-C , 11-C ) :  -0.1224 
B(  9-C , 27-H ) :   1.1003 B( 10-C , 11-C ) :   0.9111 B( 10-C , 28-H ) :   1.1516 
B( 10-C , 29-H ) :  -0.1424 B( 11-C , 29-H ) :   0.7753 B( 12-C , 13-C ) :   0.1577 
B( 12-C , 14-C ) :   0.2391 B( 12-C , 30-H ) :   1.0474 B( 12-C , 31-H ) :   0.9671 
B( 12-C , 32-H ) :   0.9032 B( 13-C , 14-C ) :   0.1176 B( 13-C , 33-H ) :   0.9593 
B( 13-C , 34-H ) :   1.0343 B( 13-C , 35-H ) :   0.9130 B( 14-C , 36-H ) :   0.9871 
B( 14-C , 37-H ) :   0.9277 B( 14-C , 38-H ) :   1.0081 B( 15-C , 16-C ) :   0.1581 
B( 15-C , 17-C ) :   0.1998 B( 15-C , 39-H ) :   0.8921 B( 15-C , 40-H ) :   1.0130 
B( 15-C , 41-H ) :   0.9823 B( 16-C , 17-C ) :   0.2203 B( 16-C , 42-H ) :   0.9316 
B( 16-C , 43-H ) :   0.9796 B( 16-C , 44-H ) :   0.9908 B( 17-C , 45-H ) :   0.9087 
B( 17-C , 46-H ) :   0.9920 B( 17-C , 47-H ) :   1.0055 B( 18-C , 19-C ) :   0.2018 
B( 18-C , 20-C ) :   0.1339 B( 18-C , 48-H ) :   0.8861 B( 18-C , 49-H ) :   0.9865 
B( 18-C , 50-H ) :   1.0359 B( 19-C , 20-C ) :   0.1983 B( 19-C , 51-H ) :   0.9341 
B( 19-C , 52-H ) :   1.0568 B( 19-C , 53-H ) :   0.9516 B( 20-C , 54-H ) :   0.9299 
B( 20-C , 55-H ) :   0.9605 B( 20-C , 56-H ) :   1.0153 B( 21-C , 22-C ) :   0.1630 
B( 21-C , 23-C ) :   0.1346 B( 21-C , 57-H ) :   0.8620 B( 21-C , 58-H ) :   1.0622 
B( 21-C , 59-H ) :   0.9958 B( 22-C , 23-C ) :   0.2044 B( 22-C , 60-H ) :   0.9353 
B( 22-C , 61-H ) :   0.9996 B( 22-C , 62-H ) :   0.9886 B( 23-C , 63-H ) :   0.9239 
B( 23-C , 64-H ) :   1.0087 B( 23-C , 65-H ) :   0.9059 B( 24-H , 29-H ) :   0.1722 
B( 57-H , 58-H ) :   0.1008 

-------
TIMINGS
-------

Total SCF time: 0 days 0 hours 1 min 49 sec 

Total time                  ....     109.618 sec
Sum of individual times     ....     105.886 sec  ( 96.6%)

Fock matrix formation       ....      80.712 sec  ( 73.6%)
  Split-RI-J                ....      31.000 sec  ( 38.4% of F)
  XC integration            ....      46.734 sec  ( 57.9% of F)
    Basis function eval.    ....       4.459 sec  (  9.5% of XC)
    Density eval.           ....      19.838 sec  ( 42.4% of XC)
    XC-Functional eval.     ....       0.282 sec  (  0.6% of XC)
    XC-Potential eval.      ....      17.695 sec  ( 37.9% of XC)
Diagonalization             ....       7.503 sec  (  6.8%)
Density matrix formation    ....       0.748 sec  (  0.7%)
Population analysis         ....       0.939 sec  (  0.9%)
Initial guess               ....       4.254 sec  (  3.9%)
Orbital Transformation      ....       0.000 sec  (  0.0%)
Orbital Orthonormalization  ....       0.000 sec  (  0.0%)
DIIS solution               ....      10.000 sec  (  9.1%)
Grid generation             ....       1.730 sec  (  1.6%)


-------------------------------------------------------------------------------
                          DFT DISPERSION CORRECTION                            
                                                                               
                              DFTD3 V3.1  Rev 1                                
                          USING Becke-Johnson damping                          
-------------------------------------------------------------------------------
The TPSS functional is recognized
Active option DFTDOPT                   ...         4   

molecular C6(AA) [au] = 54572.040604 


            DFT-D V3
 parameters
 s6 scaling factor         :     1.0000 
 a1 scaling factor         :     0.4535 
 s8 scaling factor         :     1.9435 
 a2 scaling factor         :     4.4752 
 ad hoc parameters k1-k3   :    16.0000     1.3333    -4.0000 

 Edisp/kcal,au: -97.988056089428  -0.156153890399 
 E6   /kcal   : -45.908648599 
 E8   /kcal   : -52.079407490 
 % E8         :  53.148730130 

-------------------------   ----------------
Dispersion correction           -0.156153890
-------------------------   ----------------


-------------------------   --------------------
FINAL SINGLE POINT ENERGY     -4573.928740073401
-------------------------   --------------------


                            ***************************************
                            *     ORCA property calculations      *
                            ***************************************

                                    ---------------------
                                    Active property flags
                                    ---------------------
   (+) Dipole Moment


------------------------------------------------------------------------------
                       ORCA ELECTRIC PROPERTIES CALCULATION
------------------------------------------------------------------------------

Dipole Moment Calculation                       ... on
Quadrupole Moment Calculation                   ... off
Polarizability Calculation                      ... off
GBWName                                         ... MOR34_pr35.gbw
Electron density file                           ... MOR34_pr35.scfp
The origin for moment calculation is the CENTER OF MASS  = (-0.099001,  0.013782 -0.063208)

-------------
DIPOLE MOMENT
-------------
                                X             Y             Z
Electronic contribution:      6.65663       3.78336      -7.31900
Nuclear contribution   :     -4.37445      -3.89216       7.69405
                        -----------------------------------------
Total Dipole Moment    :      2.28218      -0.10879       0.37505
                        -----------------------------------------
Magnitude (a.u.)       :      2.31535
Magnitude (Debye)      :      5.88514



--------------------
Rotational spectrum 
--------------------
 
Rotational constants in cm-1:     0.006518     0.004113     0.003881 
Rotational constants in MHz :   195.407297   123.317842   116.359449 

 Dipole components along the rotational axes: 
x,y,z [a.u.] :    -2.288957    -0.108184     0.331358 
x,y,z [Debye]:    -5.818066    -0.274983     0.842244 

 

Timings for individual modules:

Sum of individual times         ...      121.822 sec (=   2.030 min)
GTO integral calculation        ...       11.796 sec (=   0.197 min)   9.7 %
SCF iterations                  ...      110.025 sec (=   1.834 min)  90.3 %
                             ****ORCA TERMINATED NORMALLY****
TOTAL RUN TIME: 0 days 0 hours 2 minutes 2 seconds 781 msec
