
                                 *****************
                                 * O   R   C   A *
                                 *****************

           --- An Ab Initio, DFT and Semiempirical electronic structure package ---

                  #######################################################
                  #                        -***-                        #
                  #          Department of theory and spectroscopy      #
                  #               Directorship: Frank Neese             #
                  #        Max Planck Institute fuer Kohlenforschung    #
                  #                Kaiser Wilhelm Platz 1               #
                  #                 D-45470 Muelheim/Ruhr               #
                  #                      Germany                        #
                  #                                                     #
                  #                  All rights reserved                #
                  #                        -***-                        #
                  #######################################################


                         Program Version 4.2.0 -  RELEASE  -


 With contributions from (in alphabetic order):
   Daniel Aravena         : Magnetic Suceptibility
   Michael Atanasov       : Ab Initio Ligand Field Theory (pilot matlab implementation)
   Alexander A. Auer      : GIAO ZORA, VPT2
   Ute Becker             : Parallelization
   Giovanni Bistoni       : ED, misc. LED, open-shell LED, HFLED
   Martin Brehm           : Molecular dynamics
   Dmytro Bykov           : SCF Hessian
   Vijay G. Chilkuri      : MRCI spin determinant printing, contributions to CSF-ICE
   Dipayan Datta          : RHF DLPNO-CCSD density
   Achintya Kumar Dutta   : EOM-CC, STEOM-CC
   Dmitry Ganyushin       : Spin-Orbit,Spin-Spin,Magnetic field MRCI
   Miquel Garcia          : C-PCM Hessian, Gaussian charge scheme
   Yang Guo               : DLPNO-NEVPT2, CIM, IAO-localization
   Andreas Hansen         : Spin unrestricted coupled pair/coupled cluster methods
   Benjamin Helmich-Paris : CASSCF linear response (MC-RPA)
   Lee Huntington         : MR-EOM, pCC
   Robert Izsak           : Overlap fitted RIJCOSX, COSX-SCS-MP3, EOM
   Christian Kollmar      : KDIIS, OOCD, Brueckner-CCSD(T), CCSD density
   Simone Kossmann        : Meta GGA functionals, TD-DFT gradient, OOMP2, MP2 Hessian
   Martin Krupicka        : AUTO-CI
   Lucas Lang             : DCDCAS
   Dagmar Lenk            : GEPOL surface, SMD
   Dimitrios Liakos       : Extrapolation schemes; Compound Job, initial MDCI parallelization
   Dimitrios Manganas     : Further ROCIS development; embedding schemes
   Dimitrios Pantazis     : SARC Basis sets
   Taras Petrenko         : DFT Hessian,TD-DFT gradient, ASA, ECA, R-Raman, ABS, FL, XAS/XES, NRVS
   Peter Pinski           : DLPNO-MP2, DLPNO-MP2 Gradient
   Christoph Reimann      : Effective Core Potentials
   Marius Retegan         : Local ZFS, SOC
   Christoph Riplinger    : Optimizer, TS searches, QM/MM, DLPNO-CCSD(T), (RO)-DLPNO pert. Triples
   Tobias Risthaus        : Range-separated hybrids, TD-DFT gradient, RPA, STAB
   Michael Roemelt        : Original ROCIS implementation
   Masaaki Saitow         : Open-shell DLPNO-CCSD energy and density
   Barbara Sandhoefer     : DKH picture change effects
   Avijit Sen             : IP-ROCIS
   Kantharuban Sivalingam : CASSCF convergence, NEVPT2, FIC-MRCI
   Bernardo de Souza      : ESD, SOC TD-DFT
   Georgi Stoychev        : AutoAux, RI-MP2 NMR
   Willem Van den Heuvel  : Paramagnetic NMR
   Boris Wezisla          : Elementary symmetry handling
   Frank Wennmohs         : Technical directorship


 We gratefully acknowledge several colleagues who have allowed us to
 interface, adapt or use parts of their codes:
   Stefan Grimme, W. Hujo, H. Kruse,             : VdW corrections, initial TS optimization,
                  C. Bannwarth                     DFT functionals, gCP, sTDA/sTD-DF
   Ed Valeev, F. Pavosevic, A. Kumar             : LibInt (2-el integral package), F12 methods
   Garnet Chan, S. Sharma, J. Yang, R. Olivares  : DMRG
   Ulf Ekstrom                                   : XCFun DFT Library
   Mihaly Kallay                                 : mrcc  (arbitrary order and MRCC methods)
   Andreas Klamt, Michael Diedenhofen            : otool_cosmo (COSMO solvation model)
   Jiri Pittner, Ondrej Demel                    : Mk-CCSD
   Frank Weinhold                                : gennbo (NPA and NBO analysis)
   Christopher J. Cramer and Donald G. Truhlar   : smd solvation model
   Lars Goerigk                                  : TD-DFT with DH, B97 family of functionals
   V. Asgeirsson, H. Jonsson                     : NEB implementation
   FAccTs GmbH                                   : IRC, NEB, NEB-TS, Multilevel, MM, QM/MM, CI optimization
   S Lehtola, MJT Oliveira, MAL Marques          : LibXC Library


 Your calculation uses the libint2 library for the computation of 2-el integrals
 For citations please refer to: http://libint.valeyev.net

 Your ORCA version has been built with support for libXC version: 4.2.3
 For citations please refer to: https://tddft.org/programs/libxc/

 This ORCA versions uses:
   CBLAS   interface :  Fast vector & matrix operations
   LAPACKE interface :  Fast linear algebra routines
   SCALAPACK package :  Parallel linear algebra routines


Your calculation utilizes the atom-pairwise dispersion correction
with the Becke-Johnson damping scheme (D3BJ)
Cite in your paper:
S.Grimme, S.Ehrlich, L.Goerigk, J Comput Chem, (2011), 32, 1456–1465 
S.Grimme, J.Antony, S.Ehrlich and H.Krieg, J.Chem.Phys., 132, (2010), 154104 
   

----- Orbital basis set information -----
Your calculation utilizes the basis: def2-TZVPPD
   F. Weigend and R. Ahlrichs, Phys. Chem. Chem. Phys. 7, 3297 (2005).
   D. Rappoport and F. Furche, J. Chem. Phys. 133 134105 (2010).

----- AuxJ basis set information -----
Your calculation utilizes the auxiliary basis: def2/J
   F. Weigend, Phys. Chem. Chem. Phys. 8, 1057 (2006).

cite the ECPs for W  [Def2-ECP] as follows:
Ce-Yb(ecp-28): M. Dolg, H. Stoll, H.Preuss, J. Chem. Phys., 1989, 90, 1730-1734.
Y-Cd(ecp-28), Hf-Hg(ecp-46): D. Andrae,U. Haeussermann, M. Dolg, H. Stoll, H. Preuss, Theor. Chim. Acta, 1990, 77, 123-141.
In-Sb(ecp-28), Tl-Bi(ecp-46): B. Metz, H. Stoll, M. Dolg, J. Chem. Phys., 2000, 113, 2563-2569.
Te-Xe(ecp-28), Po-Rn(ecp-46): K. A. Peterson, D. Figgen, E. Goll, H. Stoll, M. Dolg, J. Chem. Phys., 2003, 119, 11113-11123.
Rb(ecp-28), Cs(ecp-46): T. Leininger, A. Nicklass, W. Kuechle, H. Stoll, M. Dolg, A. Bergner, Chem. Phys. Lett., 1996, 255, 274-280.
Sr(ecp-28), Ba(ecp-46): M. Kaupp, P. V. Schleyer, H. Stoll and H. Preuss, J. Chem. Phys., 1991, 94, 1360-1366.
La(ecp-46): M. Dolg, H. Stoll, A. Savin, H. Preuss, Theor. Chim. Acta, 1989, 75, 173-194.
Lu(ecp-28): X. Cao, M. Dolg, J. Chem. Phys., 2001, 115, 7348-7355.

ECP parameters for W  [Def2-ECP] have been obtained from:
TURBOMOLE (7.0.2)

================================================================================
                                        WARNINGS
                       Please study these warnings very carefully!
================================================================================


INFO   : the flag for use of LIBINT has been found!

================================================================================
                                       INPUT FILE
================================================================================
NAME = TMB06_T1.in
|  1> #
|  2> # TMB06_T1 TPSS-D3BJ/Def2-TZVPPD
|  3> #
|  4> ! tpss d3bj def2-tzvppd def2/j grid4 nofinalgrid
|  5> 
|  6> *xyz -2 1
|  7> C       -5.371545   -2.136160    0.336278 
|  8> C       -4.697063   -0.763740    0.262018 
|  9> O       -4.978822    0.003309   -0.707502 
| 10> O       -3.902613   -0.505987    1.212120 
| 11> C        2.635057   -0.678655    2.396830 
| 12> S        2.063323    1.004526    1.938677 
| 13> C        2.314937   -2.581636   -1.299530 
| 14> S        0.864820   -2.286095   -0.358137 
| 15> C        3.240953   -1.614445   -1.507242 
| 16> S        2.972432   -0.000985   -0.910324 
| 17> C       -0.891125    2.751712   -1.395439 
| 18> S        0.528832    2.543841   -0.360303 
| 19> C       -1.489329    1.702419   -2.015371 
| 20> S       -0.828634    0.070077   -1.896647 
| 21> W        0.627788    0.033115    0.107608 
| 22> O       -2.320739    1.386691    1.151938 
| 23> C       -0.689027   -0.837880    1.297595 
| 24> C       -0.745952    0.472117    1.605961 
| 25> H       -4.850130   -2.819358   -0.346804 
| 26> H       -5.250819   -2.525653    1.350280 
| 27> H        1.778524   -1.298220    2.681124 
| 28> H        3.117621   -1.144410    1.536216 
| 29> H       -3.029141    0.618126    1.100277 
| 30> H       -2.171098    1.699602    0.245945 
| 31> H       -1.140104   -1.782909    1.572954 
| 32> H       -0.640990    1.084034    2.487860 
| 33> H       -1.256518    3.767648   -1.529996 
| 34> H       -2.404891    1.822493   -2.590760 
| 35> H        3.371580   -0.608085    3.204035 
| 36> H        2.423780   -3.583247   -1.710229 
| 37> H        4.191166   -1.850203   -1.981855 
| 38> H       -6.431678   -2.086675    0.066661 
| 39> *
| 40> 
| 41> %maxcore 5000
| 42> 
| 43> %pal
| 44> nprocs = 24
| 45> end
| 46> 
| 47> 
| 48>                          ****END OF INPUT****
================================================================================

                       ****************************
                       * Single Point Calculation *
                       ****************************

---------------------------------
CARTESIAN COORDINATES (ANGSTROEM)
---------------------------------
  C     -5.371545   -2.136160    0.336278
  C     -4.697063   -0.763740    0.262018
  O     -4.978822    0.003309   -0.707502
  O     -3.902613   -0.505987    1.212120
  C      2.635057   -0.678655    2.396830
  S      2.063323    1.004526    1.938677
  C      2.314937   -2.581636   -1.299530
  S      0.864820   -2.286095   -0.358137
  C      3.240953   -1.614445   -1.507242
  S      2.972432   -0.000985   -0.910324
  C     -0.891125    2.751712   -1.395439
  S      0.528832    2.543841   -0.360303
  C     -1.489329    1.702419   -2.015371
  S     -0.828634    0.070077   -1.896647
  W      0.627788    0.033115    0.107608
  O     -2.320739    1.386691    1.151938
  C     -0.689027   -0.837880    1.297595
  C     -0.745952    0.472117    1.605961
  H     -4.850130   -2.819358   -0.346804
  H     -5.250819   -2.525653    1.350280
  H      1.778524   -1.298220    2.681124
  H      3.117621   -1.144410    1.536216
  H     -3.029141    0.618126    1.100277
  H     -2.171098    1.699602    0.245945
  H     -1.140104   -1.782909    1.572954
  H     -0.640990    1.084034    2.487860
  H     -1.256518    3.767648   -1.529996
  H     -2.404891    1.822493   -2.590760
  H      3.371580   -0.608085    3.204035
  H      2.423780   -3.583247   -1.710229
  H      4.191166   -1.850203   -1.981855
  H     -6.431678   -2.086675    0.066661

----------------------------
CARTESIAN COORDINATES (A.U.)
----------------------------
  NO LB      ZA    FRAG     MASS         X           Y           Z
   0 C     6.0000    0    12.011  -10.150749   -4.036757    0.635473
   1 C     6.0000    0    12.011   -8.876163   -1.443259    0.495142
   2 O     8.0000    0    15.999   -9.408610    0.006253   -1.336985
   3 O     8.0000    0    15.999   -7.374870   -0.956177    2.290575
   4 C     6.0000    0    12.011    4.979536   -1.282472    4.529352
   5 S    16.0000    0    32.060    3.899115    1.898279    3.663569
   6 C     6.0000    0    12.011    4.374597   -4.878585   -2.455756
   7 S    16.0000    0    32.060    1.634273   -4.320093   -0.676781
   8 C     6.0000    0    12.011    6.124514   -3.050859   -2.848275
   9 S    16.0000    0    32.060    5.617082   -0.001861   -1.720263
  10 C     6.0000    0    12.011   -1.683982    5.199982   -2.636998
  11 S    16.0000    0    32.060    0.999348    4.807163   -0.680874
  12 C     6.0000    0    12.011   -2.814424    3.217106   -3.808499
  13 S    16.0000    0    32.060   -1.565891    0.132426   -3.584143
  14 W    14.0000*   0   183.850    1.186347    0.062578    0.203350
  15 O     8.0000    0    15.999   -4.385561    2.620466    2.176847
  16 C     6.0000    0    12.011   -1.302072   -1.583364    2.452099
  17 C     6.0000    0    12.011   -1.409645    0.892172    3.034826
  18 H     1.0000    0     1.008   -9.165417   -5.327814   -0.655365
  19 H     1.0000    0     1.008   -9.922610   -4.772792    2.551659
  20 H     1.0000    0     1.008    3.360923   -2.453280    5.066590
  21 H     1.0000    0     1.008    5.891450   -2.162621    2.903028
  22 H     1.0000    0     1.008   -5.724247    1.168089    2.079222
  23 H     1.0000    0     1.008   -4.102781    3.211782    0.464769
  24 H     1.0000    0     1.008   -2.154484   -3.369210    2.972452
  25 H     1.0000    0     1.008   -1.211296    2.048527    4.701374
  26 H     1.0000    0     1.008   -2.374475    7.119823   -2.891273
  27 H     1.0000    0     1.008   -4.544585    3.444013   -4.895827
  28 H     1.0000    0     1.008    6.371363   -1.149114    6.054749
  29 H     1.0000    0     1.008    4.580280   -6.771356   -3.231864
  30 H     1.0000    0     1.008    7.920156   -3.496377   -3.745163
  31 H     1.0000    0     1.008  -12.154110   -3.943244    0.125971
* core charge reduced due to ECP

--------------------------------
INTERNAL COORDINATES (ANGSTROEM)
--------------------------------
 C      0   0   0     0.000000000000     0.00000000     0.00000000
 C      1   0   0     1.531005281612     0.00000000     0.00000000
 O      2   1   0     1.267959515474   118.78191294     0.00000000
 O      2   1   3     1.265022221905   115.01712807   179.38154573
 C      4   2   1     6.646388572091   138.27270964    98.17807231
 S      5   4   2     1.835723894524    67.99661809    97.76719036
 C      5   4   2     4.169759075817    77.19276986   351.29520247
 S      7   5   4     1.753968237118    60.71109240   347.52668332
 C      7   5   4     1.355030751563    75.97587171   127.24888058
 S      9   7   5     1.741168515040   120.23059556   315.02170523
 C     10   9   7     4.768621397142   128.68113036   310.80172502
 S     11  10   9     1.769461718429    38.96787593   157.59188318
 C     11  10   9     1.357637473735    87.55263929     3.92311451
 S     13  11  10     1.764979794832   121.27483835    15.75310260
 W      8   7   5     2.377359375052   110.60706142    57.46551224
 O      4   2   1     2.467423197728   122.72416531   166.93488311
 C     15   8   7     1.977044029459    75.79141844   192.49872301
 C     17  15   8     1.347004894419    74.78089788   176.21159007
 H      1   2   3     1.097831557277   108.56840867    79.80396806
 H      1   2   3     1.092922513323   108.40917165   196.46596755
 H      5   4   2     1.094683811769    44.87454429   255.54437933
 H      5   4   2     1.091078453237   107.79059777   353.48311093
 H     16   4   2     1.046515366227     5.05835422     8.63852796
 H     16   4   2     0.970118054080   111.65924194   340.78923006
 H     17  15   8     1.082761677218   144.59337185   355.64465331
 H     18  17  15     1.078519949994   137.29529246   235.53952165
 H     11  10   9     1.087999810108   145.45666243   215.60942024
 H     13  11  10     1.088000019596   121.80139811   194.56846926
 H      5   4   2     1.095000532627   142.31155083   191.59991669
 H      7   5   4     1.088000488314   138.33839949   250.09906610
 H      9   7   5     1.088000036628   120.60026945   130.45995011
 H      1   2   3     1.094999575161   111.96665919   318.72181651

---------------------------
INTERNAL COORDINATES (A.U.)
---------------------------
 C      0   0   0     0.000000000000     0.00000000     0.00000000
 C      1   0   0     2.893180691834     0.00000000     0.00000000
 O      2   1   0     2.396096233146   118.78191294     0.00000000
 O      2   1   3     2.390545552725   115.01712807   179.38154573
 C      4   2   1    12.559854180876   138.27270964    98.17807231
 S      5   4   2     3.469015418146    67.99661809    97.76719036
 C      5   4   2     7.879702697727    77.19276986   351.29520247
 S      7   5   4     3.314519615750    60.71109240   347.52668332
 C      7   5   4     2.560637023495    75.97587171   127.24888058
 S      9   7   5     3.290331646431   120.23059556   315.02170523
 C     10   9   7     9.011388476956   128.68113036   310.80172502
 S     11  10   9     3.343798052289    38.96787593   157.59188318
 C     11  10   9     2.565563014507    87.55263929     3.92311451
 S     13  11  10     3.335328444137   121.27483835    15.75310260
 W      8   7   5     4.492558140759   110.60706142    57.46551224
 O      4   2   1     4.662754100189   122.72416531   166.93488311
 C     15   8   7     3.736071770381    75.79141844   192.49872301
 C     17  15   8     2.545470351504    74.78089788   176.21159007
 H      1   2   3     2.074600984430   108.56840867    79.80396806
 H      1   2   3     2.065324235778   108.40917165   196.46596755
 H      5   4   2     2.068652607481    44.87454429   255.54437933
 H      5   4   2     2.061839467239   107.79059777   353.48311093
 H     16   4   2     1.977627437110     5.05835422     8.63852796
 H     16   4   2     1.833257439783   111.65924194   340.78923006
 H     17  15   8     2.046123038246   144.59337185   355.64465331
 H     18  17  15     2.038107335458   137.29529246   235.53952165
 H     11  10   9     2.056021674862   145.45666243   215.60942024
 H     13  11  10     2.056022070737   121.80139811   194.56846926
 H      5   4   2     2.069251123163   142.31155083   191.59991669
 H      7   5   4     2.056022956486   138.33839949   250.09906610
 H      9   7   5     2.056022102923   120.60026945   130.45995011
 H      1   2   3     2.069249313815   111.96665919   318.72181651

---------------------
BASIS SET INFORMATION
---------------------
There are 5 groups of distinct atoms

 Group   1 Type C   : 12s6p3d1f contracted to 6s3p3d1f pattern {621111/411/111/1}
 Group   2 Type O   : 12s7p3d1f contracted to 6s4p3d1f pattern {621111/4111/111/1}
 Group   3 Type S   : 15s10p4d1f contracted to 6s6p4d1f pattern {732111/511111/1111/1}
 Group   4 Type W   : 8s8p6d2f1g contracted to 6s5p3d2f1g pattern {311111/41111/411/11/1}
 Group   5 Type H   : 5s3p1d contracted to 3s3p1d pattern {311/111/1}

Atom   0C    basis set group =>   1
Atom   1C    basis set group =>   1
Atom   2O    basis set group =>   2
Atom   3O    basis set group =>   2
Atom   4C    basis set group =>   1
Atom   5S    basis set group =>   3
Atom   6C    basis set group =>   1
Atom   7S    basis set group =>   3
Atom   8C    basis set group =>   1
Atom   9S    basis set group =>   3
Atom  10C    basis set group =>   1
Atom  11S    basis set group =>   3
Atom  12C    basis set group =>   1
Atom  13S    basis set group =>   3
Atom  14W    basis set group =>   4
Atom  15O    basis set group =>   2
Atom  16C    basis set group =>   1
Atom  17C    basis set group =>   1
Atom  18H    basis set group =>   5
Atom  19H    basis set group =>   5
Atom  20H    basis set group =>   5
Atom  21H    basis set group =>   5
Atom  22H    basis set group =>   5
Atom  23H    basis set group =>   5
Atom  24H    basis set group =>   5
Atom  25H    basis set group =>   5
Atom  26H    basis set group =>   5
Atom  27H    basis set group =>   5
Atom  28H    basis set group =>   5
Atom  29H    basis set group =>   5
Atom  30H    basis set group =>   5
Atom  31H    basis set group =>   5
---------------------------------
AUXILIARY/J BASIS SET INFORMATION
---------------------------------
There are 5 groups of distinct atoms

 Group   1 Type C   : 12s5p4d2f1g contracted to 6s4p3d1f1g pattern {711111/2111/211/2/1}
 Group   2 Type O   : 12s5p4d2f1g contracted to 6s4p3d1f1g pattern {711111/2111/211/2/1}
 Group   3 Type S   : 14s5p5d2f1g contracted to 8s4p3d1f1g pattern {71111111/2111/311/2/1}
 Group   4 Type W   : 11s5p5d3f3g contracted to 8s5p5d2f3g pattern {41111111/11111/11111/21/111}
 Group   5 Type H   : 5s2p1d contracted to 3s1p1d pattern {311/2/1}

Atom   0C    basis set group =>   1
Atom   1C    basis set group =>   1
Atom   2O    basis set group =>   2
Atom   3O    basis set group =>   2
Atom   4C    basis set group =>   1
Atom   5S    basis set group =>   3
Atom   6C    basis set group =>   1
Atom   7S    basis set group =>   3
Atom   8C    basis set group =>   1
Atom   9S    basis set group =>   3
Atom  10C    basis set group =>   1
Atom  11S    basis set group =>   3
Atom  12C    basis set group =>   1
Atom  13S    basis set group =>   3
Atom  14W    basis set group =>   4
Atom  15O    basis set group =>   2
Atom  16C    basis set group =>   1
Atom  17C    basis set group =>   1
Atom  18H    basis set group =>   5
Atom  19H    basis set group =>   5
Atom  20H    basis set group =>   5
Atom  21H    basis set group =>   5
Atom  22H    basis set group =>   5
Atom  23H    basis set group =>   5
Atom  24H    basis set group =>   5
Atom  25H    basis set group =>   5
Atom  26H    basis set group =>   5
Atom  27H    basis set group =>   5
Atom  28H    basis set group =>   5
Atom  29H    basis set group =>   5
Atom  30H    basis set group =>   5
Atom  31H    basis set group =>   5
-------------------------
ECP PARAMETER INFORMATION
-------------------------

 Group 1, Type W  ECP Def2-ECP (replacing 60 core electrons, lmax=3)

Atom  14W    ECP group =>   1



           ************************************************************
           *        Program running with 24 parallel MPI-processes    *
           *              working on a common directory               *
           ************************************************************
------------------------------------------------------------------------------
                           ORCA GTO INTEGRAL CALCULATION
                           -- RI-GTO INTEGRALS CHOSEN --
------------------------------------------------------------------------------

                         BASIS SET STATISTICS AND STARTUP INFO

Gaussian basis set:
 # of primitive gaussian shells          ...  568
 # of primitive gaussian functions       ... 1344
 # of contracted shells                  ...  359
 # of contracted basis functions         ... 1005
 Highest angular momentum                ...    4
 Maximum contraction depth               ...    7
Auxiliary gaussian basis set:
 # of primitive gaussian shells          ...  562
 # of primitive gaussian functions       ... 1548
 # of contracted shells                  ...  358
 # of contracted aux-basis functions     ... 1086
 Highest angular momentum                ...    4
 Maximum contraction depth               ...    7
Ratio of auxiliary to basis functions    ...  1.08
Integral package used                  ... LIBINT
 One Electron integrals                  
   ECP integrals                         ... done
 Ordering auxiliary basis shells         ... done
 Integral threshhold             Thresh  ...  1.000e-10
 Primitive cut-off               TCut    ...  1.000e-11
 Pre-screening matrix                    ... done
 Shell pair data                         ... 
 Ordering of the shell pairs             ... done (   0.009 sec) 49765 of 64620 pairs
 Determination of significant pairs      ... done (   0.000 sec)
 Creation of shell pair data             ... done (   0.005 sec)
 Storage of shell pair data              ... done (   0.018 sec)
 Shell pair data done in (   0.032 sec)
 Computing two index integrals           ... done
 Cholesky decomposition of the V-matrix  ... done


Timings:
 Total evaluation time                   ...   4.845 sec (  0.081 min)
 One electron matrix time                ...   4.192 sec (  0.070 min) = 86.5%
 Schwartz matrix evaluation time         ...   0.519 sec (  0.009 min) = 10.7%
 Two index repulsion integral time       ...   0.026 sec (  0.000 min) =  0.5%
 Cholesky decomposition of V             ...   0.052 sec (  0.001 min) =  1.1%
 Three index repulsion integral time     ...   0.000 sec (  0.000 min) =  0.0%



           ************************************************************
           *        Program running with 24 parallel MPI-processes    *
           *              working on a common directory               *
           ************************************************************
-------------------------------------------------------------------------------
                                 ORCA SCF
-------------------------------------------------------------------------------

------------
SCF SETTINGS
------------
Hamiltonian:
 Density Functional     Method          .... DFT(GTOs)
 Exchange Functional    Exchange        .... TPSS
 Correlation Functional Correlation     .... TPSS
 LDA part of GGA corr.  LDAOpt          .... PW91-LDA
 Gradients option       PostSCFGGA      .... off
   Density functional embedding theory  .... OFF
   NL short-range parameter             ....  5.000000
 RI-approximation to the Coulomb term is turned on
   Number of auxiliary basis functions  .... 1086


General Settings:
 Integral files         IntName         .... TMB06_T1
 Hartree-Fock type      HFTyp           .... RHF
 Total Charge           Charge          ....   -2
 Multiplicity           Mult            ....    1
 Number of Electrons    NEL             ....  188
 Basis Dimension        Dim             .... 1005
 Nuclear Repulsion      ENuc            ....   2319.0967045002 Eh

Convergence Acceleration:
 DIIS                   CNVDIIS         .... on
   Start iteration      DIISMaxIt       ....    12
   Startup error        DIISStart       ....  0.200000
   # of expansion vecs  DIISMaxEq       ....     5
   Bias factor          DIISBfac        ....   1.050
   Max. coefficient     DIISMaxC        ....  10.000
 Newton-Raphson         CNVNR           .... off
 SOSCF                  CNVSOSCF        .... off
 Level Shifting         CNVShift        .... on
   Level shift para.    LevelShift      ....    0.2500
   Turn off err/grad.   ShiftErr        ....    0.0010
 Zerner damping         CNVZerner       .... off
 Static damping         CNVDamp         .... on
   Fraction old density DampFac         ....    0.7000
   Max. Damping (<1)    DampMax         ....    0.9800
   Min. Damping (>=0)   DampMin         ....    0.0000
   Turn off err/grad.   DampErr         ....    0.1000
 Fernandez-Rico         CNVRico         .... off

SCF Procedure:
 Maximum # iterations   MaxIter         ....   125
 SCF integral mode      SCFMode         .... Direct
   Integral package                     .... LIBINT
 Reset frequency        DirectResetFreq ....    20
 Integral Threshold     Thresh          ....  1.000e-10 Eh
 Primitive CutOff       TCut            ....  1.000e-11 Eh

Convergence Tolerance:
 Convergence Check Mode ConvCheckMode   .... Total+1el-Energy
 Convergence forced     ConvForced      .... 0
 Energy Change          TolE            ....  1.000e-06 Eh
 1-El. energy change                    ....  1.000e-03 Eh
 DIIS Error             TolErr          ....  1.000e-06


Diagonalization of the overlap matrix:
Smallest eigenvalue                        ... 1.211e-06
Time for diagonalization                   ...    0.170 sec
Threshold for overlap eigenvalues          ... 1.000e-08
Number of eigenvalues below threshold      ... 0
Time for construction of square roots      ...    0.123 sec
Total time needed                          ...    0.299 sec

-------------------
DFT GRID GENERATION
-------------------

General Integration Accuracy     IntAcc      ...  4.670
Radial Grid Type                 RadialGrid  ... Gauss-Chebyshev
Angular Grid (max. acc.)         AngularGrid ... Lebedev-302
Angular grid pruning method      GridPruning ... 3 (G Style)
Weight generation scheme         WeightScheme... Becke
Basis function cutoff            BFCut       ...    1.0000e-10
Integration weight cutoff        WCut        ...    1.0000e-14
Grids for H and He will be reduced by one unit

# of grid points (after initial pruning)     ... 167942 (   0.0 sec)
# of grid points (after weights+screening)   ... 149580 (   0.1 sec)
nearest neighbour list constructed           ...    0.0 sec
Grid point re-assignment to atoms done       ...    0.0 sec
Grid point division into batches done        ...    0.5 sec
Reduced shell lists constructed in    0.6 sec

Total number of grid points                  ...   149580
Total number of batches                      ...     2352
Average number of points per batch           ...       63
Average number of grid points per atom       ...     4674
Average number of shells per batch           ...   162.62 (45.30%)
Average number of basis functions per batch  ...   436.03 (43.39%)
Average number of large shells per batch     ...   110.99 (68.25%)
Average number of large basis fcns per batch ...   300.79 (68.98%)
Maximum spatial batch extension              ...   4.35,  4.59,  3.75 au
Average spatial batch extension              ...   0.05,  0.05,  0.05 au

Time for grid setup =    0.861 sec

------------------------------
INITIAL GUESS: MODEL POTENTIAL
------------------------------
Loading Hartree-Fock densities                     ... done
  calling /sw/apps/orca/orca_4_2_0_linux_x86-64_openmpi314/orca TMB06_T1_atom74.inp > TMB06_T1_atom74.out in order to generate an atomic fitting density for atom 14 (W  with ECP) on-the-fly... 
    atom 14 (W ), assumed electronic state with S=5: 1s2 2s2 2p6 3s2 3p6 4s2 3d10 4p6 5s2 4d10 5p6 6s2 4f14 5d4           ... done
Calculating cut-offs                               ... done
Setting up the integral package                    ... done
Initializing the effective Hamiltonian             ... done
Starting the Coulomb interaction                   ... done (   0.1 sec)
Reading the grid                                   ... done
Mapping shells                                     ... done
Starting the XC term evaluation                    ... done (   0.5 sec)
  promolecular density results
     # of electrons  =    245.993959348
     EX              =   -523.924228922
     EC              =    -10.641596383
     EX+EC           =   -534.565825305
Transforming the Hamiltonian                       ... done (   0.1 sec)
Diagonalizing the Hamiltonian                      ... done (   0.1 sec)
Back transforming the eigenvectors                 ... done (   0.0 sec)
Now organizing SCF variables                       ... done
                      ------------------
                      INITIAL GUESS DONE (   3.3 sec)
                      ------------------
--------------
SCF ITERATIONS
--------------
ITER       Energy         Delta-E        Max-DP      RMS-DP      [F,P]     Damp
               ***  Starting incremental Fock matrix formation  ***
  0  -2635.0192932266   0.000000000000 0.97876124  0.00275524  0.3933061 0.7000
  1  -2635.4288917906  -0.409598564008 0.68542015  0.00199428  0.2659786 0.7000
                               ***Turning on DIIS***
  2  -2635.5361553341  -0.107263543561 0.35944336  0.00127428  0.1808795 0.7000
  3  -2635.6139330844  -0.077777750293 0.21775792  0.00086969  0.1264976 0.7000
  4  -2635.6740728191  -0.060139734703 0.66866260  0.00208243  0.0889453 0.0000
  5  -2635.8083376385  -0.134264819363 0.11971859  0.00038255  0.0103217 0.0000
  6  -2635.8094370471  -0.001099408581 0.04848051  0.00019640  0.0049713 0.0000
  7  -2635.8097770006  -0.000339953544 0.04744607  0.00026557  0.0007674 0.0000
  8  -2635.8098071313  -0.000030130661 0.00696745  0.00002662  0.0008313 0.0000
  9  -2635.8098139044  -0.000006773153 0.00175958  0.00001083  0.0008580 0.0000
 10  -2635.8098175039  -0.000003599509 0.00661560  0.00001459  0.0003756 0.0000
 11  -2635.8098184948  -0.000000990899 0.00363962  0.00001526  0.0002408 0.0000
 12  -2635.8098189672  -0.000000472329 0.00352246  0.00001090  0.0000649 0.0000
 13  -2635.8098192551  -0.000000287979 0.00328686  0.00001157  0.0000728 0.0000
                 **** Energy Check signals convergence ****

               *****************************************************
               *                     SUCCESS                       *
               *           SCF CONVERGED AFTER  14 CYCLES          *
               *****************************************************


----------------
TOTAL SCF ENERGY
----------------

Total Energy       :        -2635.80981922 Eh          -71724.03156 eV

Components:
Nuclear Repulsion  :         2319.09670450 Eh           63105.82957 eV
Electronic Energy  :        -4954.90652372 Eh         -134829.86113 eV
One Electron Energy:        -8320.52030371 Eh         -226412.86807 eV
Two Electron Energy:         3365.61377999 Eh           91583.00694 eV

Virial components:
Potential Energy   :        -5221.10415737 Eh         -142073.46700 eV
Kinetic Energy     :         2585.29433815 Eh           70349.43544 eV
Virial Ratio       :            2.01953955


DFT components:
N(Alpha)           :       93.999913059599 electrons
N(Beta)            :       93.999913059599 electrons
N(Total)           :      187.999826119198 electrons
E(X)               :     -209.828271625292 Eh       
E(C)               :       -6.848214382872 Eh       
E(XC)              :     -216.676486008163 Eh       
DFET-embed. en.    :        0.000000000000 Eh       

---------------
SCF CONVERGENCE
---------------

  Last Energy change         ...    3.6967e-08  Tolerance :   1.0000e-06
  Last MAX-Density change    ...    4.9700e-03  Tolerance :   1.0000e-05
  Last RMS-Density change    ...    1.4240e-05  Tolerance :   1.0000e-06
  Last DIIS Error            ...    1.8643e-05  Tolerance :   1.0000e-06

             **** THE GBW FILE WAS UPDATED (TMB06_T1.gbw) ****
             **** DENSITY FILE WAS UPDATED (TMB06_T1.scfp) ****
             **** ENERGY FILE WAS UPDATED (TMB06_T1.en.tmp) ****
             **** THE GBW FILE WAS UPDATED (TMB06_T1.gbw) ****
             **** DENSITY FILE WAS UPDATED (TMB06_T1.scfp) ****
----------------
ORBITAL ENERGIES
----------------

  NO   OCC          E(Eh)            E(eV) 
   0   2.0000     -88.125580     -2398.0190 
   1   2.0000     -88.110068     -2397.5969 
   2   2.0000     -88.103402     -2397.4154 
   3   2.0000     -88.095532     -2397.2013 
   4   2.0000     -88.090390     -2397.0614 
   5   2.0000     -18.649685      -507.4837 
   6   2.0000     -18.608603      -506.3658 
   7   2.0000     -18.592465      -505.9267 
   8   2.0000      -9.840008      -267.7602 
   9   2.0000      -9.799078      -266.6465 
  10   2.0000      -9.791358      -266.4364 
  11   2.0000      -9.787132      -266.3214 
  12   2.0000      -9.783347      -266.2184 
  13   2.0000      -9.779720      -266.1197 
  14   2.0000      -9.779392      -266.1108 
  15   2.0000      -9.772197      -265.9150 
  16   2.0000      -9.746253      -265.2090 
  17   2.0000      -7.505831      -204.2440 
  18   2.0000      -7.490772      -203.8343 
  19   2.0000      -7.483858      -203.6461 
  20   2.0000      -7.476069      -203.4342 
  21   2.0000      -7.471490      -203.3096 
  22   2.0000      -5.485353      -149.2640 
  23   2.0000      -5.481372      -149.1557 
  24   2.0000      -5.479070      -149.0931 
  25   2.0000      -5.470632      -148.8635 
  26   2.0000      -5.465815      -148.7324 
  27   2.0000      -5.464063      -148.6847 
  28   2.0000      -5.463559      -148.6710 
  29   2.0000      -5.459171      -148.5516 
  30   2.0000      -5.457031      -148.4934 
  31   2.0000      -5.456016      -148.4657 
  32   2.0000      -5.452286      -148.3642 
  33   2.0000      -5.451113      -148.3323 
  34   2.0000      -5.449266      -148.2821 
  35   2.0000      -5.447359      -148.2302 
  36   2.0000      -5.442816      -148.1066 
  37   2.0000      -2.646746       -72.0216 
  38   2.0000      -1.325925       -36.0802 
  39   2.0000      -1.319894       -35.9161 
  40   2.0000      -1.317593       -35.8535 
  41   2.0000      -0.732012       -19.9190 
  42   2.0000      -0.700800       -19.0697 
  43   2.0000      -0.639699       -17.4071 
  44   2.0000      -0.539028       -14.6677 
  45   2.0000      -0.518700       -14.1146 
  46   2.0000      -0.477451       -12.9921 
  47   2.0000      -0.462943       -12.5973 
  48   2.0000      -0.453155       -12.3310 
  49   2.0000      -0.444596       -12.0981 
  50   2.0000      -0.424108       -11.5406 
  51   2.0000      -0.381297       -10.3756 
  52   2.0000      -0.362296        -9.8586 
  53   2.0000      -0.335458        -9.1283 
  54   2.0000      -0.285268        -7.7625 
  55   2.0000      -0.271621        -7.3912 
  56   2.0000      -0.267607        -7.2820 
  57   2.0000      -0.254881        -6.9357 
  58   2.0000      -0.220434        -5.9983 
  59   2.0000      -0.217773        -5.9259 
  60   2.0000      -0.201997        -5.4966 
  61   2.0000      -0.201158        -5.4738 
  62   2.0000      -0.180754        -4.9186 
  63   2.0000      -0.178574        -4.8592 
  64   2.0000      -0.170321        -4.6347 
  65   2.0000      -0.165925        -4.5151 
  66   2.0000      -0.156716        -4.2645 
  67   2.0000      -0.154509        -4.2044 
  68   2.0000      -0.130874        -3.5613 
  69   2.0000      -0.123685        -3.3656 
  70   2.0000      -0.115811        -3.1514 
  71   2.0000      -0.103666        -2.8209 
  72   2.0000      -0.100849        -2.7443 
  73   2.0000      -0.095791        -2.6066 
  74   2.0000      -0.088850        -2.4177 
  75   2.0000      -0.086306        -2.3485 
  76   2.0000      -0.073225        -1.9926 
  77   2.0000      -0.066195        -1.8013 
  78   2.0000      -0.055243        -1.5032 
  79   2.0000      -0.039284        -1.0690 
  80   2.0000      -0.034570        -0.9407 
  81   2.0000      -0.031428        -0.8552 
  82   2.0000      -0.014795        -0.4026 
  83   2.0000      -0.012847        -0.3496 
  84   2.0000       0.001286         0.0350 
  85   2.0000       0.003868         0.1053 
  86   2.0000       0.009245         0.2516 
  87   2.0000       0.010355         0.2818 
  88   2.0000       0.015805         0.4301 
  89   2.0000       0.027409         0.7458 
  90   2.0000       0.033575         0.9136 
  91   2.0000       0.038425         1.0456 
  92   2.0000       0.054618         1.4862 
  93   2.0000       0.070033         1.9057 
  94   0.0000       0.118554         3.2260 
  95   0.0000       0.156684         4.2636 
  96   0.0000       0.158532         4.3139 
  97   0.0000       0.169492         4.6121 
  98   0.0000       0.172737         4.7004 
  99   0.0000       0.174440         4.7468 
 100   0.0000       0.179259         4.8779 
 101   0.0000       0.186103         5.0641 
 102   0.0000       0.190570         5.1857 
 103   0.0000       0.193234         5.2582 
 104   0.0000       0.196077         5.3355 
 105   0.0000       0.199374         5.4253 
 106   0.0000       0.201603         5.4859 
 107   0.0000       0.209739         5.7073 
 108   0.0000       0.211091         5.7441 
 109   0.0000       0.215554         5.8655 
 110   0.0000       0.218146         5.9361 
 111   0.0000       0.220384         5.9970 
 112   0.0000       0.221893         6.0380 
 113   0.0000       0.224000         6.0953 
 114   0.0000       0.228493         6.2176 
 115   0.0000       0.232667         6.3312 
 116   0.0000       0.233852         6.3634 
 117   0.0000       0.239628         6.5206 
 118   0.0000       0.244083         6.6418 
 119   0.0000       0.246185         6.6990 
 120   0.0000       0.247277         6.7287 
 121   0.0000       0.251904         6.8547 
 122   0.0000       0.252548         6.8722 
 123   0.0000       0.254733         6.9316 
 124   0.0000       0.258825         7.0430 
 125   0.0000       0.262505         7.1431 
 126   0.0000       0.263181         7.1615 
 127   0.0000       0.266754         7.2587 
 128   0.0000       0.276238         7.5168 
 129   0.0000       0.277253         7.5444 
 130   0.0000       0.277924         7.5627 
 131   0.0000       0.280171         7.6239 
 132   0.0000       0.286190         7.7876 
 133   0.0000       0.287059         7.8113 
 134   0.0000       0.291929         7.9438 
 135   0.0000       0.295751         8.0478 
 136   0.0000       0.298524         8.1232 
 137   0.0000       0.300054         8.1649 
 138   0.0000       0.303426         8.2566 
 139   0.0000       0.304886         8.2964 
 140   0.0000       0.310457         8.4480 
 141   0.0000       0.311411         8.4739 
 142   0.0000       0.318849         8.6763 
 143   0.0000       0.320648         8.7253 
 144   0.0000       0.324505         8.8302 
 145   0.0000       0.327949         8.9239 
 146   0.0000       0.329142         8.9564 
 147   0.0000       0.334412         9.0998 
 148   0.0000       0.336354         9.1526 
 149   0.0000       0.339878         9.2485 
 150   0.0000       0.342758         9.3269 
 151   0.0000       0.347762         9.4631 
 152   0.0000       0.349600         9.5131 
 153   0.0000       0.353886         9.6297 
 154   0.0000       0.356618         9.7041 
 155   0.0000       0.358195         9.7470 
 156   0.0000       0.359932         9.7943 
 157   0.0000       0.361122         9.8266 
 158   0.0000       0.367141         9.9904 
 159   0.0000       0.370503        10.0819 
 160   0.0000       0.372037        10.1236 
 161   0.0000       0.380688        10.3590 
 162   0.0000       0.381822        10.3899 
 163   0.0000       0.384380        10.4595 
 164   0.0000       0.388557        10.5732 
 165   0.0000       0.391882        10.6637 
 166   0.0000       0.393325        10.7029 
 167   0.0000       0.396352        10.7853 
 168   0.0000       0.398562        10.8454 
 169   0.0000       0.401061        10.9134 
 170   0.0000       0.406585        11.0637 
 171   0.0000       0.406910        11.0726 
 172   0.0000       0.409415        11.1408 
 173   0.0000       0.411450        11.1961 
 174   0.0000       0.412868        11.2347 
 175   0.0000       0.415573        11.3083 
 176   0.0000       0.417233        11.3535 
 177   0.0000       0.419510        11.4155 
 178   0.0000       0.422911        11.5080 
 179   0.0000       0.426117        11.5952 
 180   0.0000       0.429085        11.6760 
 181   0.0000       0.429240        11.6802 
 182   0.0000       0.434662        11.8278 
 183   0.0000       0.436536        11.8787 
 184   0.0000       0.439087        11.9482 
 185   0.0000       0.442260        12.0345 
 186   0.0000       0.443499        12.0682 
 187   0.0000       0.446862        12.1597 
 188   0.0000       0.448547        12.2056 
 189   0.0000       0.451097        12.2750 
 190   0.0000       0.458588        12.4788 
 191   0.0000       0.460075        12.5193 
 192   0.0000       0.462438        12.5836 
 193   0.0000       0.464677        12.6445 
 194   0.0000       0.467464        12.7203 
 195   0.0000       0.468913        12.7598 
 196   0.0000       0.470046        12.7906 
 197   0.0000       0.474828        12.9207 
 198   0.0000       0.476378        12.9629 
 199   0.0000       0.477727        12.9996 
 200   0.0000       0.480219        13.0674 
 201   0.0000       0.484206        13.1759 
 202   0.0000       0.486436        13.2366 
 203   0.0000       0.489378        13.3166 
 204   0.0000       0.491679        13.3793 
 205   0.0000       0.495721        13.4893 
 206   0.0000       0.496659        13.5148 
 207   0.0000       0.504134        13.7182 
 208   0.0000       0.505500        13.7554 
 209   0.0000       0.507179        13.8010 
 210   0.0000       0.509117        13.8538 
 211   0.0000       0.511451        13.9173 
 212   0.0000       0.513333        13.9685 
 213   0.0000       0.515914        14.0387 
 214   0.0000       0.517170        14.0729 
 215   0.0000       0.521494        14.1906 
 216   0.0000       0.523201        14.2370 
 217   0.0000       0.526238        14.3197 
 218   0.0000       0.529349        14.4043 
 219   0.0000       0.531611        14.4659 
 220   0.0000       0.538732        14.6596 
 221   0.0000       0.543339        14.7850 
 222   0.0000       0.545915        14.8551 
 223   0.0000       0.550738        14.9863 
 224   0.0000       0.553061        15.0496 
 225   0.0000       0.555500        15.1159 
 226   0.0000       0.558628        15.2010 
 227   0.0000       0.559067        15.2130 
 228   0.0000       0.562418        15.3042 
 229   0.0000       0.564055        15.3487 
 230   0.0000       0.566113        15.4047 
 231   0.0000       0.567351        15.4384 
 232   0.0000       0.572926        15.5901 
 233   0.0000       0.574990        15.6463 
 234   0.0000       0.578556        15.7433 
 235   0.0000       0.582507        15.8508 
 236   0.0000       0.584260        15.8985 
 237   0.0000       0.589474        16.0404 
 238   0.0000       0.592190        16.1143 
 239   0.0000       0.594973        16.1900 
 240   0.0000       0.595982        16.2175 
 241   0.0000       0.599613        16.3163 
 242   0.0000       0.601574        16.3697 
 243   0.0000       0.602916        16.4062 
 244   0.0000       0.607917        16.5423 
 245   0.0000       0.609351        16.5813 
 246   0.0000       0.613691        16.6994 
 247   0.0000       0.617169        16.7940 
 248   0.0000       0.621779        16.9195 
 249   0.0000       0.623519        16.9668 
 250   0.0000       0.624783        17.0012 
 251   0.0000       0.626201        17.0398 
 252   0.0000       0.629880        17.1399 
 253   0.0000       0.633008        17.2250 
 254   0.0000       0.633663        17.2428 
 255   0.0000       0.635485        17.2924 
 256   0.0000       0.639369        17.3981 
 257   0.0000       0.643629        17.5140 
 258   0.0000       0.648471        17.6458 
 259   0.0000       0.649574        17.6758 
 260   0.0000       0.652809        17.7638 
 261   0.0000       0.657253        17.8848 
 262   0.0000       0.658703        17.9242 
 263   0.0000       0.659917        17.9573 
 264   0.0000       0.666308        18.1312 
 265   0.0000       0.669183        18.2094 
 266   0.0000       0.671086        18.2612 
 267   0.0000       0.676218        18.4008 
 268   0.0000       0.680870        18.5274 
 269   0.0000       0.681862        18.5544 
 270   0.0000       0.685340        18.6490 
 271   0.0000       0.690387        18.7864 
 272   0.0000       0.692115        18.8334 
 273   0.0000       0.694005        18.8848 
 274   0.0000       0.696699        18.9581 
 275   0.0000       0.699006        19.0209 
 276   0.0000       0.700927        19.0732 
 277   0.0000       0.708767        19.2865 
 278   0.0000       0.711817        19.3695 
 279   0.0000       0.715252        19.4630 
 280   0.0000       0.718437        19.5497 
 281   0.0000       0.720685        19.6108 
 282   0.0000       0.722297        19.6547 
 283   0.0000       0.728311        19.8183 
 284   0.0000       0.730143        19.8682 
 285   0.0000       0.733603        19.9623 
 286   0.0000       0.742432        20.2026 
 287   0.0000       0.748374        20.3643 
 288   0.0000       0.750063        20.4102 
 289   0.0000       0.751139        20.4395 
 290   0.0000       0.755456        20.5570 
 291   0.0000       0.758682        20.6448 
 292   0.0000       0.761532        20.7223 
 293   0.0000       0.766708        20.8632 
 294   0.0000       0.768075        20.9004 
 295   0.0000       0.772124        21.0105 
 296   0.0000       0.777891        21.1675 
 297   0.0000       0.780731        21.2448 
 298   0.0000       0.781914        21.2770 
 299   0.0000       0.788479        21.4556 
 300   0.0000       0.791123        21.5276 
 301   0.0000       0.792847        21.5745 
 302   0.0000       0.796028        21.6610 
 303   0.0000       0.797985        21.7143 
 304   0.0000       0.803092        21.8533 
 305   0.0000       0.803960        21.8769 
 306   0.0000       0.809397        22.0248 
 307   0.0000       0.812331        22.1047 
 308   0.0000       0.813974        22.1494 
 309   0.0000       0.815883        22.2013 
 310   0.0000       0.820314        22.3219 
 311   0.0000       0.820430        22.3250 
 312   0.0000       0.828955        22.5570 
 313   0.0000       0.834009        22.6945 
 314   0.0000       0.835382        22.7319 
 315   0.0000       0.838781        22.8244 
 316   0.0000       0.843077        22.9413 
 317   0.0000       0.845594        23.0098 
 318   0.0000       0.848885        23.0993 
 319   0.0000       0.850173        23.1344 
 320   0.0000       0.853422        23.2228 
 321   0.0000       0.856930        23.3183 
 322   0.0000       0.861052        23.4304 
 323   0.0000       0.863699        23.5025 
 324   0.0000       0.867188        23.5974 
 325   0.0000       0.872023        23.7290 
 326   0.0000       0.872745        23.7486 
 327   0.0000       0.876953        23.8631 
 328   0.0000       0.882403        24.0114 
 329   0.0000       0.883382        24.0380 
 330   0.0000       0.884682        24.0734 
 331   0.0000       0.887271        24.1439 
 332   0.0000       0.892511        24.2864 
 333   0.0000       0.896203        24.3869 
 334   0.0000       0.897589        24.4246 
 335   0.0000       0.901228        24.5237 
 336   0.0000       0.902897        24.5691 
 337   0.0000       0.904761        24.6198 
 338   0.0000       0.910833        24.7850 
 339   0.0000       0.913304        24.8523 
 340   0.0000       0.914630        24.8884 
 341   0.0000       0.920793        25.0560 
 342   0.0000       0.924296        25.1514 
 343   0.0000       0.926773        25.2188 
 344   0.0000       0.929107        25.2823 
 345   0.0000       0.933143        25.3921 
 346   0.0000       0.934287        25.4232 
 347   0.0000       0.938810        25.5463 
 348   0.0000       0.943476        25.6733 
 349   0.0000       0.946410        25.7531 
 350   0.0000       0.951602        25.8944 
 351   0.0000       0.954206        25.9653 
 352   0.0000       0.958155        26.0727 
 353   0.0000       0.959064        26.0975 
 354   0.0000       0.959709        26.1150 
 355   0.0000       0.964745        26.2520 
 356   0.0000       0.970360        26.4048 
 357   0.0000       0.976861        26.5817 
 358   0.0000       0.977736        26.6056 
 359   0.0000       0.981351        26.7039 
 360   0.0000       0.984490        26.7893 
 361   0.0000       0.986501        26.8441 
 362   0.0000       0.988286        26.8926 
 363   0.0000       0.993944        27.0466 
 364   0.0000       0.999218        27.1901 
 365   0.0000       1.004097        27.3229 
 366   0.0000       1.008072        27.4310 
 367   0.0000       1.014112        27.5954 
 368   0.0000       1.015248        27.6263 
 369   0.0000       1.021444        27.7949 
 370   0.0000       1.024763        27.8852 
 371   0.0000       1.027876        27.9699 
 372   0.0000       1.033158        28.1137 
 373   0.0000       1.038848        28.2685 
 374   0.0000       1.046399        28.4740 
 375   0.0000       1.047897        28.5147 
 376   0.0000       1.052303        28.6346 
 377   0.0000       1.057333        28.7715 
 378   0.0000       1.058749        28.8100 
 379   0.0000       1.062864        28.9220 
 380   0.0000       1.073987        29.2247 
 381   0.0000       1.076159        29.2838 
 382   0.0000       1.080622        29.4052 
 383   0.0000       1.084544        29.5119 
 384   0.0000       1.087080        29.5809 
 385   0.0000       1.092501        29.7285 
 386   0.0000       1.102713        30.0064 
 387   0.0000       1.105826        30.0911 
 388   0.0000       1.108990        30.1772 
 389   0.0000       1.113230        30.2925 
 390   0.0000       1.123214        30.5642 
 391   0.0000       1.124939        30.6112 
 392   0.0000       1.129823        30.7440 
 393   0.0000       1.135261        30.8920 
 394   0.0000       1.139081        30.9960 
 395   0.0000       1.146407        31.1953 
 396   0.0000       1.148654        31.2565 
 397   0.0000       1.151486        31.3335 
 398   0.0000       1.161283        31.6001 
 399   0.0000       1.164281        31.6817 
 400   0.0000       1.170565        31.8527 
 401   0.0000       1.173528        31.9333 
 402   0.0000       1.177500        32.0414 
 403   0.0000       1.185339        32.2547 
 404   0.0000       1.192431        32.4477 
 405   0.0000       1.196575        32.5605 
 406   0.0000       1.201075        32.6829 
 407   0.0000       1.205250        32.7965 
 408   0.0000       1.210583        32.9416 
 409   0.0000       1.219972        33.1971 
 410   0.0000       1.225781        33.3552 
 411   0.0000       1.235359        33.6158 
 412   0.0000       1.241273        33.7768 
 413   0.0000       1.245251        33.8850 
 414   0.0000       1.245516        33.8922 
 415   0.0000       1.253750        34.1163 
 416   0.0000       1.264040        34.3963 
 417   0.0000       1.271911        34.6105 
 418   0.0000       1.277270        34.7563 
 419   0.0000       1.289116        35.0786 
 420   0.0000       1.294513        35.2255 
 421   0.0000       1.299596        35.3638 
 422   0.0000       1.307938        35.5908 
 423   0.0000       1.309018        35.6202 
 424   0.0000       1.314413        35.7670 
 425   0.0000       1.318066        35.8664 
 426   0.0000       1.323940        36.0262 
 427   0.0000       1.327828        36.1320 
 428   0.0000       1.344348        36.5816 
 429   0.0000       1.350164        36.7398 
 430   0.0000       1.360700        37.0265 
 431   0.0000       1.363364        37.0990 
 432   0.0000       1.368917        37.2501 
 433   0.0000       1.372357        37.3437 
 434   0.0000       1.382245        37.6128 
 435   0.0000       1.391430        37.8627 
 436   0.0000       1.396284        37.9948 
 437   0.0000       1.401317        38.1318 
 438   0.0000       1.407242        38.2930 
 439   0.0000       1.412499        38.4361 
 440   0.0000       1.421367        38.6774 
 441   0.0000       1.424073        38.7510 
 442   0.0000       1.428684        38.8765 
 443   0.0000       1.429541        38.8998 
 444   0.0000       1.431882        38.9635 
 445   0.0000       1.447376        39.3851 
 446   0.0000       1.448389        39.4127 
 447   0.0000       1.449373        39.4394 
 448   0.0000       1.459075        39.7035 
 449   0.0000       1.465402        39.8756 
 450   0.0000       1.471172        40.0326 
 451   0.0000       1.474251        40.1164 
 452   0.0000       1.487395        40.4741 
 453   0.0000       1.493761        40.6473 
 454   0.0000       1.500715        40.8365 
 455   0.0000       1.504218        40.9318 
 456   0.0000       1.512774        41.1647 
 457   0.0000       1.515313        41.2338 
 458   0.0000       1.519500        41.3477 
 459   0.0000       1.529418        41.6176 
 460   0.0000       1.537083        41.8262 
 461   0.0000       1.538685        41.8697 
 462   0.0000       1.547384        42.1064 
 463   0.0000       1.548596        42.1394 
 464   0.0000       1.550015        42.1781 
 465   0.0000       1.566579        42.6288 
 466   0.0000       1.570934        42.7473 
 467   0.0000       1.577423        42.9239 
 468   0.0000       1.581387        43.0317 
 469   0.0000       1.589717        43.2584 
 470   0.0000       1.592959        43.3466 
 471   0.0000       1.596896        43.4537 
 472   0.0000       1.611791        43.8591 
 473   0.0000       1.615018        43.9469 
 474   0.0000       1.619152        44.0594 
 475   0.0000       1.622616        44.1536 
 476   0.0000       1.633475        44.4491 
 477   0.0000       1.635451        44.5029 
 478   0.0000       1.641324        44.6627 
 479   0.0000       1.644988        44.7624 
 480   0.0000       1.646907        44.8146 
 481   0.0000       1.656350        45.0716 
 482   0.0000       1.669972        45.4422 
 483   0.0000       1.672101        45.5002 
 484   0.0000       1.674476        45.5648 
 485   0.0000       1.691231        46.0207 
 486   0.0000       1.700189        46.2645 
 487   0.0000       1.701179        46.2914 
 488   0.0000       1.712233        46.5922 
 489   0.0000       1.714549        46.6552 
 490   0.0000       1.733818        47.1796 
 491   0.0000       1.736162        47.2434 
 492   0.0000       1.751195        47.6524 
 493   0.0000       1.752433        47.6861 
 494   0.0000       1.759380        47.8752 
 495   0.0000       1.764340        48.0101 
 496   0.0000       1.773604        48.2622 
 497   0.0000       1.783644        48.5354 
 498   0.0000       1.785259        48.5794 
 499   0.0000       1.793506        48.8038 
 500   0.0000       1.799969        48.9796 
 501   0.0000       1.805770        49.1375 
 502   0.0000       1.811974        49.3063 
 503   0.0000       1.822673        49.5975 
 504   0.0000       1.829879        49.7935 
 505   0.0000       1.833474        49.8914 
 506   0.0000       1.838001        50.0145 
 507   0.0000       1.854294        50.4579 
 508   0.0000       1.856028        50.5051 
 509   0.0000       1.864579        50.7378 
 510   0.0000       1.866995        50.8035 
 511   0.0000       1.875929        51.0466 
 512   0.0000       1.888409        51.3862 
 513   0.0000       1.898710        51.6665 
 514   0.0000       1.899568        51.6899 
 515   0.0000       1.907575        51.9078 
 516   0.0000       1.909300        51.9547 
 517   0.0000       1.914897        52.1070 
 518   0.0000       1.918096        52.1940 
 519   0.0000       1.928155        52.4678 
 520   0.0000       1.929916        52.5157 
 521   0.0000       1.933363        52.6095 
 522   0.0000       1.941960        52.8434 
 523   0.0000       1.946099        52.9561 
 524   0.0000       1.952516        53.1306 
 525   0.0000       1.958570        53.2954 
 526   0.0000       1.965409        53.4815 
 527   0.0000       1.968827        53.5745 
 528   0.0000       1.973393        53.6988 
 529   0.0000       1.975226        53.7486 
 530   0.0000       1.985718        54.0341 
 531   0.0000       1.986471        54.0546 
 532   0.0000       1.993970        54.2587 
 533   0.0000       2.001643        54.4675 
 534   0.0000       2.003812        54.5265 
 535   0.0000       2.008461        54.6530 
 536   0.0000       2.012837        54.7721 
 537   0.0000       2.017604        54.9018 
 538   0.0000       2.024882        55.0998 
 539   0.0000       2.027881        55.1815 
 540   0.0000       2.029501        55.2255 
 541   0.0000       2.037932        55.4549 
 542   0.0000       2.042623        55.5826 
 543   0.0000       2.048595        55.7451 
 544   0.0000       2.054654        55.9100 
 545   0.0000       2.058962        56.0272 
 546   0.0000       2.064442        56.1763 
 547   0.0000       2.070677        56.3460 
 548   0.0000       2.073048        56.4105 
 549   0.0000       2.082180        56.6590 
 550   0.0000       2.092693        56.9451 
 551   0.0000       2.095321        57.0166 
 552   0.0000       2.099407        57.1278 
 553   0.0000       2.105324        57.2888 
 554   0.0000       2.115703        57.5712 
 555   0.0000       2.122378        57.7528 
 556   0.0000       2.125923        57.8493 
 557   0.0000       2.131834        58.0102 
 558   0.0000       2.137459        58.1632 
 559   0.0000       2.154146        58.6173 
 560   0.0000       2.158112        58.7252 
 561   0.0000       2.162901        58.8555 
 562   0.0000       2.169268        59.0288 
 563   0.0000       2.171870        59.0996 
 564   0.0000       2.178513        59.2804 
 565   0.0000       2.185824        59.4793 
 566   0.0000       2.198351        59.8202 
 567   0.0000       2.200220        59.8710 
 568   0.0000       2.210471        60.1500 
 569   0.0000       2.218086        60.3572 
 570   0.0000       2.221080        60.4387 
 571   0.0000       2.230335        60.6905 
 572   0.0000       2.244939        61.0879 
 573   0.0000       2.248933        61.1966 
 574   0.0000       2.255482        61.3748 
 575   0.0000       2.258679        61.4618 
 576   0.0000       2.265764        61.6546 
 577   0.0000       2.268214        61.7212 
 578   0.0000       2.276214        61.9389 
 579   0.0000       2.284599        62.1671 
 580   0.0000       2.286089        62.2077 
 581   0.0000       2.292559        62.3837 
 582   0.0000       2.299297        62.5671 
 583   0.0000       2.311406        62.8965 
 584   0.0000       2.319664        63.1213 
 585   0.0000       2.322735        63.2048 
 586   0.0000       2.335499        63.5522 
 587   0.0000       2.338962        63.6464 
 588   0.0000       2.350843        63.9697 
 589   0.0000       2.358347        64.1739 
 590   0.0000       2.363771        64.3215 
 591   0.0000       2.369638        64.4811 
 592   0.0000       2.383245        64.8514 
 593   0.0000       2.394468        65.1568 
 594   0.0000       2.400009        65.3076 
 595   0.0000       2.402713        65.3812 
 596   0.0000       2.415039        65.7166 
 597   0.0000       2.419563        65.8396 
 598   0.0000       2.430500        66.1373 
 599   0.0000       2.434719        66.2521 
 600   0.0000       2.438438        66.3533 
 601   0.0000       2.445904        66.5564 
 602   0.0000       2.452155        66.7265 
 603   0.0000       2.452884        66.7464 
 604   0.0000       2.458456        66.8980 
 605   0.0000       2.466419        67.1147 
 606   0.0000       2.472959        67.2926 
 607   0.0000       2.489146        67.7331 
 608   0.0000       2.492846        67.8338 
 609   0.0000       2.496718        67.9392 
 610   0.0000       2.504230        68.1436 
 611   0.0000       2.512633        68.3722 
 612   0.0000       2.517165        68.4956 
 613   0.0000       2.525052        68.7101 
 614   0.0000       2.534360        68.9634 
 615   0.0000       2.539914        69.1146 
 616   0.0000       2.551066        69.4180 
 617   0.0000       2.561329        69.6973 
 618   0.0000       2.573750        70.0353 
 619   0.0000       2.578142        70.1548 
 620   0.0000       2.589890        70.4745 
 621   0.0000       2.604602        70.8748 
 622   0.0000       2.611293        71.0569 
 623   0.0000       2.614517        71.1446 
 624   0.0000       2.619606        71.2831 
 625   0.0000       2.637803        71.7783 
 626   0.0000       2.650930        72.1355 
 627   0.0000       2.654724        72.2387 
 628   0.0000       2.666564        72.5609 
 629   0.0000       2.692826        73.2755 
 630   0.0000       2.694034        73.3084 
 631   0.0000       2.711880        73.7940 
 632   0.0000       2.722519        74.0835 
 633   0.0000       2.735672        74.4414 
 634   0.0000       2.748625        74.7939 
 635   0.0000       2.760215        75.1093 
 636   0.0000       2.766144        75.2706 
 637   0.0000       2.768891        75.3453 
 638   0.0000       2.787103        75.8409 
 639   0.0000       2.806798        76.3769 
 640   0.0000       2.818598        76.6979 
 641   0.0000       2.824712        76.8643 
 642   0.0000       2.835818        77.1665 
 643   0.0000       2.847265        77.4780 
 644   0.0000       2.852313        77.6154 
 645   0.0000       2.861303        77.8600 
 646   0.0000       2.873748        78.1987 
 647   0.0000       2.899910        78.9106 
 648   0.0000       2.913208        79.2724 
 649   0.0000       2.919111        79.4331 
 650   0.0000       2.926298        79.6286 
 651   0.0000       2.950752        80.2940 
 652   0.0000       2.961100        80.5756 
 653   0.0000       2.967588        80.7522 
 654   0.0000       2.987094        81.2830 
 655   0.0000       3.016681        82.0881 
 656   0.0000       3.020190        82.1836 
 657   0.0000       3.033047        82.5334 
 658   0.0000       3.040694        82.7415 
 659   0.0000       3.053604        83.0928 
 660   0.0000       3.058279        83.2200 
 661   0.0000       3.072492        83.6068 
 662   0.0000       3.082230        83.8717 
 663   0.0000       3.097225        84.2798 
 664   0.0000       3.101982        84.4092 
 665   0.0000       3.115140        84.7673 
 666   0.0000       3.126013        85.0631 
 667   0.0000       3.132496        85.2395 
 668   0.0000       3.152105        85.7731 
 669   0.0000       3.155965        85.8782 
 670   0.0000       3.175377        86.4064 
 671   0.0000       3.183304        86.6221 
 672   0.0000       3.191004        86.8316 
 673   0.0000       3.202337        87.1400 
 674   0.0000       3.205367        87.2225 
 675   0.0000       3.211102        87.3785 
 676   0.0000       3.216028        87.5126 
 677   0.0000       3.241864        88.2156 
 678   0.0000       3.244577        88.2894 
 679   0.0000       3.248926        88.4078 
 680   0.0000       3.266165        88.8769 
 681   0.0000       3.269267        88.9613 
 682   0.0000       3.271758        89.0291 
 683   0.0000       3.278731        89.2188 
 684   0.0000       3.294875        89.6581 
 685   0.0000       3.295670        89.6797 
 686   0.0000       3.303382        89.8896 
 687   0.0000       3.306381        89.9712 
 688   0.0000       3.311675        90.1153 
 689   0.0000       3.319381        90.3249 
 690   0.0000       3.327173        90.5370 
 691   0.0000       3.338093        90.8341 
 692   0.0000       3.349096        91.1335 
 693   0.0000       3.358982        91.4026 
 694   0.0000       3.360948        91.4560 
 695   0.0000       3.371480        91.7426 
 696   0.0000       3.377839        91.9157 
 697   0.0000       3.382706        92.0481 
 698   0.0000       3.395392        92.3933 
 699   0.0000       3.398962        92.4905 
 700   0.0000       3.401842        92.5688 
 701   0.0000       3.406954        92.7079 
 702   0.0000       3.411233        92.8244 
 703   0.0000       3.416038        92.9551 
 704   0.0000       3.419750        93.0561 
 705   0.0000       3.428407        93.2917 
 706   0.0000       3.435108        93.4740 
 707   0.0000       3.451724        93.9262 
 708   0.0000       3.458804        94.1188 
 709   0.0000       3.465310        94.2959 
 710   0.0000       3.482147        94.7540 
 711   0.0000       3.489339        94.9497 
 712   0.0000       3.492042        95.0233 
 713   0.0000       3.503125        95.3249 
 714   0.0000       3.509370        95.4948 
 715   0.0000       3.511267        95.5464 
 716   0.0000       3.520031        95.7849 
 717   0.0000       3.529333        96.0380 
 718   0.0000       3.532109        96.1136 
 719   0.0000       3.540882        96.3523 
 720   0.0000       3.546188        96.4967 
 721   0.0000       3.549324        96.5820 
 722   0.0000       3.556188        96.7688 
 723   0.0000       3.561590        96.9158 
 724   0.0000       3.574643        97.2710 
 725   0.0000       3.591698        97.7351 
 726   0.0000       3.598382        97.9170 
 727   0.0000       3.602912        98.0402 
 728   0.0000       3.604625        98.0868 
 729   0.0000       3.623345        98.5962 
 730   0.0000       3.632780        98.8530 
 731   0.0000       3.641210        99.0823 
 732   0.0000       3.651822        99.3711 
 733   0.0000       3.661788        99.6423 
 734   0.0000       3.662446        99.6602 
 735   0.0000       3.677950       100.0821 
 736   0.0000       3.683611       100.2361 
 737   0.0000       3.691498       100.4508 
 738   0.0000       3.698142       100.6316 
 739   0.0000       3.708419       100.9112 
 740   0.0000       3.710347       100.9637 
 741   0.0000       3.716391       101.1281 
 742   0.0000       3.727105       101.4197 
 743   0.0000       3.737075       101.6910 
 744   0.0000       3.743297       101.8603 
 745   0.0000       3.748179       101.9931 
 746   0.0000       3.750969       102.0690 
 747   0.0000       3.756155       102.2102 
 748   0.0000       3.765402       102.4618 
 749   0.0000       3.769720       102.5793 
 750   0.0000       3.781795       102.9079 
 751   0.0000       3.787750       103.0699 
 752   0.0000       3.790029       103.1319 
 753   0.0000       3.797064       103.3234 
 754   0.0000       3.800459       103.4157 
 755   0.0000       3.811352       103.7122 
 756   0.0000       3.817105       103.8687 
 757   0.0000       3.829073       104.1944 
 758   0.0000       3.832252       104.2809 
 759   0.0000       3.840863       104.5152 
 760   0.0000       3.855652       104.9176 
 761   0.0000       3.871938       105.3608 
 762   0.0000       3.881650       105.6251 
 763   0.0000       3.890843       105.8752 
 764   0.0000       3.905873       106.2842 
 765   0.0000       3.907686       106.3336 
 766   0.0000       3.915464       106.5452 
 767   0.0000       3.919886       106.6655 
 768   0.0000       3.929610       106.9301 
 769   0.0000       3.936899       107.1285 
 770   0.0000       3.945844       107.3719 
 771   0.0000       3.965926       107.9183 
 772   0.0000       3.967422       107.9590 
 773   0.0000       3.974628       108.1551 
 774   0.0000       3.992398       108.6387 
 775   0.0000       4.000778       108.8667 
 776   0.0000       4.007866       109.0596 
 777   0.0000       4.022154       109.4484 
 778   0.0000       4.033229       109.7497 
 779   0.0000       4.048128       110.1552 
 780   0.0000       4.062147       110.5366 
 781   0.0000       4.069762       110.7439 
 782   0.0000       4.072651       110.8225 
 783   0.0000       4.082343       111.0862 
 784   0.0000       4.111512       111.8799 
 785   0.0000       4.116032       112.0029 
 786   0.0000       4.124920       112.2448 
 787   0.0000       4.139701       112.6470 
 788   0.0000       4.140070       112.6570 
 789   0.0000       4.145018       112.7917 
 790   0.0000       4.154318       113.0447 
 791   0.0000       4.158360       113.1547 
 792   0.0000       4.162527       113.2681 
 793   0.0000       4.171739       113.5188 
 794   0.0000       4.177448       113.6741 
 795   0.0000       4.196209       114.1847 
 796   0.0000       4.214952       114.6947 
 797   0.0000       4.218620       114.7945 
 798   0.0000       4.223205       114.9193 
 799   0.0000       4.240364       115.3862 
 800   0.0000       4.259301       115.9015 
 801   0.0000       4.267585       116.1269 
 802   0.0000       4.285260       116.6078 
 803   0.0000       4.288752       116.7029 
 804   0.0000       4.297812       116.9494 
 805   0.0000       4.333356       117.9166 
 806   0.0000       4.341138       118.1284 
 807   0.0000       4.342901       118.1763 
 808   0.0000       4.367937       118.8576 
 809   0.0000       4.372038       118.9692 
 810   0.0000       4.386456       119.3615 
 811   0.0000       4.391424       119.4967 
 812   0.0000       4.408154       119.9520 
 813   0.0000       4.423923       120.3811 
 814   0.0000       4.441269       120.8531 
 815   0.0000       4.445247       120.9613 
 816   0.0000       4.457515       121.2951 
 817   0.0000       4.461303       121.3982 
 818   0.0000       4.478250       121.8594 
 819   0.0000       4.480242       121.9136 
 820   0.0000       4.492896       122.2579 
 821   0.0000       4.515478       122.8724 
 822   0.0000       4.521770       123.0436 
 823   0.0000       4.526219       123.1647 
 824   0.0000       4.533844       123.3722 
 825   0.0000       4.544073       123.6505 
 826   0.0000       4.552933       123.8916 
 827   0.0000       4.554050       123.9220 
 828   0.0000       4.571575       124.3989 
 829   0.0000       4.575760       124.5128 
 830   0.0000       4.598810       125.1400 
 831   0.0000       4.603327       125.2629 
 832   0.0000       4.616631       125.6249 
 833   0.0000       4.620259       125.7236 
 834   0.0000       4.622658       125.7889 
 835   0.0000       4.630989       126.0156 
 836   0.0000       4.639310       126.2420 
 837   0.0000       4.668951       127.0486 
 838   0.0000       4.685363       127.4952 
 839   0.0000       4.693421       127.7145 
 840   0.0000       4.706454       128.0691 
 841   0.0000       4.733463       128.8041 
 842   0.0000       4.749337       129.2360 
 843   0.0000       4.771998       129.8527 
 844   0.0000       4.784147       130.1833 
 845   0.0000       4.810415       130.8981 
 846   0.0000       4.819365       131.1416 
 847   0.0000       4.873405       132.6121 
 848   0.0000       4.885165       132.9321 
 849   0.0000       4.911699       133.6541 
 850   0.0000       4.943187       134.5110 
 851   0.0000       4.962906       135.0475 
 852   0.0000       4.971201       135.2732 
 853   0.0000       4.982759       135.5878 
 854   0.0000       5.000385       136.0674 
 855   0.0000       5.014741       136.4580 
 856   0.0000       5.019736       136.5940 
 857   0.0000       5.033456       136.9673 
 858   0.0000       5.058878       137.6591 
 859   0.0000       5.081997       138.2882 
 860   0.0000       5.101465       138.8179 
 861   0.0000       5.113410       139.1429 
 862   0.0000       5.135365       139.7404 
 863   0.0000       5.188384       141.1831 
 864   0.0000       5.213728       141.8727 
 865   0.0000       5.226366       142.2166 
 866   0.0000       5.235677       142.4700 
 867   0.0000       5.249040       142.8336 
 868   0.0000       5.258001       143.0775 
 869   0.0000       5.259988       143.1315 
 870   0.0000       5.304198       144.3346 
 871   0.0000       5.321193       144.7970 
 872   0.0000       5.364119       145.9651 
 873   0.0000       5.376859       146.3118 
 874   0.0000       5.389967       146.6685 
 875   0.0000       5.402537       147.0105 
 876   0.0000       5.415175       147.3544 
 877   0.0000       5.418356       147.4410 
 878   0.0000       5.449717       148.2943 
 879   0.0000       5.452024       148.3571 
 880   0.0000       5.464381       148.6934 
 881   0.0000       5.476199       149.0150 
 882   0.0000       5.479599       149.1075 
 883   0.0000       5.501457       149.7023 
 884   0.0000       5.531643       150.5237 
 885   0.0000       5.554245       151.1387 
 886   0.0000       5.566958       151.4846 
 887   0.0000       5.585633       151.9928 
 888   0.0000       5.605121       152.5231 
 889   0.0000       5.630238       153.2066 
 890   0.0000       5.650973       153.7708 
 891   0.0000       5.665111       154.1555 
 892   0.0000       5.678213       154.5120 
 893   0.0000       5.688366       154.7883 
 894   0.0000       5.696275       155.0035 
 895   0.0000       5.706788       155.2896 
 896   0.0000       5.724294       155.7660 
 897   0.0000       5.732558       155.9908 
 898   0.0000       5.743508       156.2888 
 899   0.0000       5.761431       156.7765 
 900   0.0000       5.771958       157.0630 
 901   0.0000       5.775848       157.1688 
 902   0.0000       5.795197       157.6953 
 903   0.0000       5.818108       158.3188 
 904   0.0000       5.862936       159.5386 
 905   0.0000       5.867566       159.6646 
 906   0.0000       5.893234       160.3630 
 907   0.0000       5.947217       161.8320 
 908   0.0000       5.958145       162.1294 
 909   0.0000       5.973535       162.5482 
 910   0.0000       5.991891       163.0477 
 911   0.0000       6.006313       163.4401 
 912   0.0000       6.018200       163.7635 
 913   0.0000       6.037530       164.2895 
 914   0.0000       6.130684       166.8244 
 915   0.0000       6.171925       167.9466 
 916   0.0000       6.282014       170.9423 
 917   0.0000       6.390009       173.8810 
 918   0.0000       6.438374       175.1971 
 919   0.0000       6.478369       176.2854 
 920   0.0000       6.564110       178.6185 
 921   0.0000       6.651760       181.0036 
 922   0.0000       6.779463       184.4786 
 923   0.0000       6.798715       185.0024 
 924   0.0000       6.799600       185.0265 
 925   0.0000       6.819813       185.5766 
 926   0.0000       6.907079       187.9512 
 927   0.0000       6.936727       188.7579 
 928   0.0000       7.005961       190.6419 
 929   0.0000       7.011095       190.7816 
 930   0.0000       7.031616       191.3400 
 931   0.0000       7.049630       191.8302 
 932   0.0000       7.057964       192.0570 
 933   0.0000       7.061810       192.1616 
 934   0.0000       7.077480       192.5880 
 935   0.0000       7.082149       192.7151 
 936   0.0000       7.089075       192.9035 
 937   0.0000       7.096177       193.0968 
 938   0.0000       7.106973       193.3906 
 939   0.0000       7.109351       193.4553 
 940   0.0000       7.118868       193.7142 
 941   0.0000       7.124363       193.8638 
 942   0.0000       7.128673       193.9811 
 943   0.0000       7.138508       194.2487 
 944   0.0000       7.140788       194.3107 
 945   0.0000       7.151127       194.5921 
 946   0.0000       7.167788       195.0454 
 947   0.0000       7.169623       195.0954 
 948   0.0000       7.175399       195.2525 
 949   0.0000       7.207286       196.1202 
 950   0.0000       7.223715       196.5673 
 951   0.0000       7.228897       196.7083 
 952   0.0000       7.249262       197.2625 
 953   0.0000       7.271952       197.8799 
 954   0.0000       7.290746       198.3913 
 955   0.0000       7.345380       199.8780 
 956   0.0000       7.356729       200.1868 
 957   0.0000       7.363622       200.3743 
 958   0.0000       7.368447       200.5056 
 959   0.0000       7.455499       202.8744 
 960   0.0000       7.481180       203.5733 
 961   0.0000       7.492042       203.8688 
 962   0.0000       7.575086       206.1286 
 963   0.0000       7.602727       206.8807 
 964   0.0000       7.743200       210.7032 
 965   0.0000       7.948233       216.2824 
 966   0.0000       8.223564       223.7746 
 967   0.0000       8.310412       226.1378 
 968   0.0000       9.330039       253.8833 
 969   0.0000       9.341200       254.1870 
 970   0.0000       9.342143       254.2126 
 971   0.0000       9.375411       255.1179 
 972   0.0000       9.390304       255.5232 
 973   0.0000       9.546110       259.7629 
 974   0.0000       9.583101       260.7694 
 975   0.0000       9.605597       261.3816 
 976   0.0000       9.642720       262.3917 
 977   0.0000       9.661287       262.8970 
 978   0.0000       9.685820       263.5646 
 979   0.0000       9.730046       264.7680 
 980   0.0000       9.738834       265.0072 
 981   0.0000       9.831380       267.5255 
 982   0.0000       9.854625       268.1580 
 983   0.0000      20.219686       550.2056 
 984   0.0000      20.461645       556.7897 
 985   0.0000      20.509066       558.0801 
 986   0.0000      20.731284       564.1269 
 987   0.0000      20.892660       568.5182 
 988   0.0000      23.040018       626.9508 
 989   0.0000      23.152003       629.9980 
 990   0.0000      23.431374       637.6001 
 991   0.0000      23.453740       638.2087 
 992   0.0000      23.611830       642.5106 
 993   0.0000      23.728296       645.6798 
 994   0.0000      23.800114       647.6340 
 995   0.0000      23.815324       648.0479 
 996   0.0000      23.859385       649.2469 
 997   0.0000      44.416278      1208.6284 
 998   0.0000      44.497072      1210.8269 
 999   0.0000      44.760534      1217.9960 
 1000   0.0000      46.857446      1275.0559 
 1001   0.0000      48.274334      1313.6114 
 1002   0.0000      51.351454      1397.3441 
 1003   0.0000      71.885076      1956.0924 
 1004   0.0000     584.780972     15912.6992 

                    ********************************
                    * MULLIKEN POPULATION ANALYSIS *
                    ********************************

-----------------------
MULLIKEN ATOMIC CHARGES
-----------------------
   0 C :   -0.332186
   1 C :    0.796581
   2 O :   -0.808381
   3 O :   -0.704163
   4 C :   -0.051977
   5 S :   -0.633908
   6 C :    0.172808
   7 S :   -0.539284
   8 C :    0.127309
   9 S :   -0.478126
  10 C :    0.218708
  11 S :   -0.544824
  12 C :    0.121881
  13 S :   -0.489241
  14 W :   -0.026417
  15 O :   -0.685634
  16 C :   -0.121968
[...]
      dx2y2   :     0.105456
      dxy     :     0.108035
      f0      :     0.002566  f :     0.023707
      f+1     :     0.001740
      f-1     :     0.004041
      f+2     :     0.003140
      f-2     :     0.002972
      f+3     :     0.004627
      f-3     :     0.004620
  6 C s       :     2.756433  s :     2.756433
      pz      :     0.878840  p :     2.814171
      px      :     0.956724
      py      :     0.978607
      dz2     :     0.135049  d :     0.949692
      dxz     :     0.198106
      dyz     :     0.123255
      dx2y2   :     0.292676
      dxy     :     0.200605
      f0      :     0.004693  f :     0.040663
      f+1     :     0.004526
      f-1     :     0.002879
      f+2     :     0.004631
      f-2     :     0.007200
      f+3     :     0.008165
      f-3     :     0.008569
  7 S s       :     5.110347  s :     5.110347
      pz      :     3.189795  p :     9.639515
      px      :     3.135942
      py      :     3.313779
      dz2     :     0.092603  d :     0.602766
      dxz     :     0.138437
      dyz     :     0.098946
      dx2y2   :     0.117601
      dxy     :     0.155179
      f0      :     0.002715  f :     0.031079
      f+1     :     0.005046
      f-1     :     0.001565
      f+2     :     0.006536
      f-2     :     0.003787
      f+3     :     0.006224
      f-3     :     0.005205
  8 C s       :     2.757629  s :     2.757629
      pz      :     0.841770  p :     2.800252
      px      :     0.961667
      py      :     0.996816
      dz2     :     0.094514  d :     0.992441
      dxz     :     0.107222
      dyz     :     0.224166
      dx2y2   :     0.311244
      dxy     :     0.255295
      f0      :     0.004327  f :     0.042189
      f+1     :     0.001464
      f-1     :     0.005784
      f+2     :     0.004269
      f-2     :     0.006984
      f+3     :     0.009823
      f-3     :     0.009539
  9 S s       :     5.166580  s :     5.166580
      pz      :     3.248663  p :     9.766095
      px      :     3.379432
      py      :     3.138000
      dz2     :     0.095515  d :     0.531164
      dxz     :     0.062743
      dyz     :     0.128665
      dx2y2   :     0.111425
      dxy     :     0.132815
      f0      :     0.002498  f :     0.027581
      f+1     :     0.000963
      f-1     :     0.004394
      f+2     :     0.005507
      f-2     :     0.002415
      f+3     :     0.005643
      f-3     :     0.006161
 10 C s       :     2.752411  s :     2.752411
      pz      :     0.892309  p :     2.798261
      px      :     0.912107
      py      :     0.993845
      dz2     :     0.207559  d :     1.005491
      dxz     :     0.200630
      dyz     :     0.145553
      dx2y2   :     0.254682
      dxy     :     0.197066
      f0      :     0.003256  f :     0.040301
      f+1     :     0.004113
      f-1     :     0.006187
      f+2     :     0.006070
      f-2     :     0.007024
      f+3     :     0.006254
      f-3     :     0.007397
 11 S s       :     5.169999  s :     5.169999
      pz      :     3.296397  p :     9.803480
      px      :     3.198889
      py      :     3.308194
      dz2     :     0.078432  d :     0.509269
      dxz     :     0.119137
      dyz     :     0.097174
      dx2y2   :     0.101492
      dxy     :     0.113033
      f0      :     0.002521  f :     0.026039
      f+1     :     0.005145
      f-1     :     0.001162
      f+2     :     0.005939
      f-2     :     0.003570
      f+3     :     0.004237
      f-3     :     0.003466
 12 C s       :     2.751335  s :     2.751335
      pz      :     0.884712  p :     2.801759
      px      :     0.932053
      py      :     0.984994
      dz2     :     0.114456  d :     0.984755
      dxz     :     0.114579
      dyz     :     0.216200
      dx2y2   :     0.291003
      dxy     :     0.248518
      f0      :     0.004119  f :     0.040449
      f+1     :     0.001420
      f-1     :     0.006693
      f+2     :     0.005582
      f-2     :     0.005925
      f+3     :     0.006608
      f-3     :     0.010102
 13 S s       :     5.162726  s :     5.162726
      pz      :     3.302969  p :     9.763319
      px      :     3.314372
      py      :     3.145978
      dz2     :     0.088041  d :     0.498051
      dxz     :     0.066353
      dyz     :     0.115105
      dx2y2   :     0.104543
      dxy     :     0.124009
      f0      :     0.003589  f :     0.027360
      f+1     :     0.002190
      f-1     :     0.003848
      f+2     :     0.002824
      f-2     :     0.002987
      f+3     :     0.006239
      f-3     :     0.005684
 14 W s       :     1.998832  s :     1.998832
      pz      :     2.189851  p :     6.597083
      px      :     2.193158
      py      :     2.214075
      dz2     :     0.879867  d :     4.736589
      dxz     :     0.993379
      dyz     :     0.935102
      dx2y2   :     0.924218
      dxy     :     1.004024
      f0      :     0.069253  f :     0.532840
      f+1     :     0.090924
      f-1     :     0.063232
      f+2     :     0.109456
      f-2     :     0.058101
      f+3     :     0.064816
      f-3     :     0.077058
      g0      :     0.004082  g :     0.050690
      g+1     :     0.007097
      g-1     :     0.003389
      g+2     :     0.007320
      g-2     :     0.005719
      g+3     :     0.006989
      g-3     :     0.006647
      g+4     :     0.006292
      g-4     :     0.003156
 15 O s       :     3.157730  s :     3.157730
      pz      :     1.406185  p :     4.228081
      px      :     1.386459
      py      :     1.435436
      dz2     :     0.053098  d :     0.263294
      dxz     :     0.046832
      dyz     :     0.027476
      dx2y2   :     0.047143
      dxy     :     0.088746
      f0      :     0.000772  f :     0.002913
      f+1     :     0.000438
      f-1     :     0.000705
      f+2     :     0.000086
      f-2     :     0.000120
      f+3     :     0.000353
      f-3     :     0.000440
 16 C s       :     2.729666  s :     2.729666
      pz      :     0.864643  p :     2.678354
      px      :     0.830285
      py      :     0.983426
      dz2     :     0.132954  d :     0.785324
      dxz     :     0.102160
      dyz     :     0.185130
      dx2y2   :     0.175864
      dxy     :     0.189216
      f0      :     0.003805  f :     0.040403
      f+1     :     0.002687
      f-1     :     0.006549
      f+2     :     0.007565
      f-2     :     0.004771
      f+3     :     0.008358
      f-3     :     0.006667
 17 C s       :     2.699202  s :     2.699202
      pz      :     0.892187  p :     2.542761
      px      :     0.685307
      py      :     0.965266
      dz2     :     0.170587  d :     0.959561
      dxz     :     0.117151
      dyz     :     0.223726
      dx2y2   :     0.208636
      dxy     :     0.239461
      f0      :     0.003354  f :     0.045689
      f+1     :     0.003494
      f-1     :     0.007339
      f+2     :     0.010106
      f-2     :     0.004497
      f+3     :     0.009090
      f-3     :     0.007808
 18 H s       :     0.707594  s :     0.707594
      pz      :     0.100472  p :     0.289579
      px      :     0.090590
      py      :     0.098517
      dz2     :     0.006926  d :     0.028588
      dxz     :     0.004656
      dyz     :     0.006280
      dx2y2   :     0.005805
      dxy     :     0.004920
 19 H s       :     0.709062  s :     0.709062
      pz      :     0.128648  p :     0.300382
      px      :     0.082086
      py      :     0.089647
      dz2     :     0.009731  d :     0.029402
      dxz     :     0.007727
      dyz     :     0.009371
      dx2y2   :     0.001402
      dxy     :     0.001170
 20 H s       :     0.712875  s :     0.712875
      pz      :     0.097626  p :     0.349225
      px      :     0.134746
      py      :     0.116853
      dz2     :     0.003372  d :     0.029838
      dxz     :     0.006784
      dyz     :     0.003532
      dx2y2   :     0.008062
      dxy     :     0.008088
 21 H s       :     0.704710  s :     0.704710
      pz      :     0.168459  p :     0.394645
      px      :     0.108576
      py      :     0.117610
      dz2     :     0.008174  d :     0.030592
      dxz     :     0.007650
      dyz     :     0.007434
      dx2y2   :     0.003586
      dxy     :     0.003749
 22 H s       :     0.512556  s :     0.512556
      pz      :     0.111394  p :     0.689494
      px      :     0.263681
      py      :     0.314419
      dz2     :     0.009423  d :     0.082951
      dxz     :     0.009849
      dyz     :     0.012212
      dx2y2   :     0.023857
      dxy     :     0.027609
 23 H s       :     0.579093  s :     0.579093
      pz      :     0.270724  p :     0.556309
      px      :     0.142097
      py      :     0.143488
      dz2     :     0.034358  d :     0.093237
      dxz     :     0.024374
      dyz     :     0.026528
      dx2y2   :     0.004276
      dxy     :     0.003702
 24 H s       :     0.728939  s :     0.728939
      pz      :     0.093980  p :     0.315620
      px      :     0.101090
      py      :     0.120550
      dz2     :     0.003357  d :     0.029695
      dxz     :     0.002260
      dyz     :     0.007708
      dx2y2   :     0.008103
      dxy     :     0.008267
 25 H s       :     0.700423  s :     0.700423
      pz      :     0.127734  p :     0.328042
      px      :     0.106042
      py      :     0.094267
      dz2     :     0.010775  d :     0.030987
      dxz     :     0.005086
      dyz     :     0.009112
      dx2y2   :     0.003372
      dxy     :     0.002642
 26 H s       :     0.732528  s :     0.732528
      pz      :     0.093324  p :     0.320063
      px      :     0.098913
      py      :     0.127826
      dz2     :     0.002940  d :     0.029833
      dxz     :     0.001174
      dyz     :     0.008448
      dx2y2   :     0.008184
      dxy     :     0.009087
 27 H s       :     0.725559  s :     0.725559
      pz      :     0.101292  p :     0.316261
      px      :     0.128137
      py      :     0.086832
      dz2     :     0.005712  d :     0.029987
      dxz     :     0.008597
      dyz     :     0.002643
      dx2y2   :     0.006432
      dxy     :     0.006602
 28 H s       :     0.735630  s :     0.735630
      pz      :     0.120565  p :     0.328011
      px      :     0.114097
      py      :     0.093348
      dz2     :     0.008236  d :     0.029312
      dxz     :     0.008149
      dyz     :     0.004814
      dx2y2   :     0.003989
      dxy     :     0.004124
 29 H s       :     0.735759  s :     0.735759
      pz      :     0.105738  p :     0.326636
      px      :     0.090196
      py      :     0.130701
      dz2     :     0.004193  d :     0.029964
      dxz     :     0.001396
      dyz     :     0.009172
      dx2y2   :     0.007281
      dxy     :     0.007923
 30 H s       :     0.734773  s :     0.734773
      pz      :     0.101730  p :     0.321562
      px      :     0.124934
      py      :     0.094898
      dz2     :     0.004527  d :     0.029641
      dxz     :     0.008261
      dyz     :     0.002219
      dx2y2   :     0.006882
      dxy     :     0.007751
 31 H s       :     0.716662  s :     0.716662
      pz      :     0.084496  p :     0.291216
      px      :     0.128120
      py      :     0.078600
      dz2     :     0.003449  d :     0.028635
      dxz     :     0.008526
      dyz     :     0.000639
      dx2y2   :     0.007568
      dxy     :     0.008453


                      *****************************
                      * MAYER POPULATION ANALYSIS *
                      *****************************

  NA   - Mulliken gross atomic population
  ZA   - Total nuclear charge
  QA   - Mulliken gross atomic charge
  VA   - Mayer's total valence
  BVA  - Mayer's bonded valence
  FA   - Mayer's free valence

  ATOM       NA         ZA         QA         VA         BVA        FA
  0 C      6.3322     6.0000    -0.3322     4.1147     4.1147     0.0000
  1 C      5.2034     6.0000     0.7966     3.4212     3.4212     0.0000
  2 O      8.8084     8.0000    -0.8084     1.3857     1.3857     0.0000
  3 O      8.7042     8.0000    -0.7042     1.4537     1.4537     0.0000
  4 C      6.0520     6.0000    -0.0520     3.6260     3.6260    -0.0000
  5 S     16.6339    16.0000    -0.6339     1.8430     1.8430     0.0000
  6 C      5.8272     6.0000     0.1728     3.4138     3.4138     0.0000
  7 S     16.5393    16.0000    -0.5393     2.2115     2.2115     0.0000
  8 C      5.8727     6.0000     0.1273     3.5858     3.5858    -0.0000
  9 S     16.4781    16.0000    -0.4781     2.0395     2.0395    -0.0000
 10 C      5.7813     6.0000     0.2187     3.2314     3.2314     0.0000
 11 S     16.5448    16.0000    -0.5448     1.9412     1.9412    -0.0000
 12 C      5.8781     6.0000     0.1219     3.3889     3.3889    -0.0000
 13 S     16.4892    16.0000    -0.4892     2.0415     2.0415    -0.0000
 14 W     14.0264    14.0000    -0.0264     7.2892     7.2892    -0.0000
 15 O      8.6856     8.0000    -0.6856     1.6193     1.6193     0.0000
 16 C      6.1220     6.0000    -0.1220     3.3733     3.3733    -0.0000
 17 C      5.3336     6.0000     0.6664     3.0825     3.0825     0.0000
 18 H      0.9932     1.0000     0.0068     1.0873     1.0873     0.0000
 19 H      0.9017     1.0000     0.0983     1.0508     1.0508     0.0000
 20 H      0.8431     1.0000     0.1569     1.0818     1.0818    -0.0000
 21 H      0.8805     1.0000     0.1195     1.1235     1.1235    -0.0000
 22 H      0.4335     1.0000     0.5665     0.5613     0.5613    -0.0000
 23 H      0.7099     1.0000     0.2901     0.9648     0.9648     0.0000
 24 H      1.1133     1.0000    -0.1133     1.1497     1.1497    -0.0000
 25 H      1.1387     1.0000    -0.1387     1.1752     1.1752     0.0000
 26 H      0.9643     1.0000     0.0357     1.0485     1.0485     0.0000
 27 H      0.9758     1.0000     0.0242     1.0409     1.0409     0.0000
 28 H      0.8973     1.0000     0.1027     1.0544     1.0544    -0.0000
 29 H      0.9329     1.0000     0.0671     1.0251     1.0251     0.0000
 30 H      0.9753     1.0000     0.0247     1.0676     1.0676    -0.0000
 31 H      0.9282     1.0000     0.0718     1.0830     1.0830     0.0000

  Mayer bond orders larger than 0.100000
B(  0-C ,  1-C ) :   0.9720 B(  0-C , 18-H ) :   1.0092 B(  0-C , 19-H ) :   1.0085 
B(  0-C , 31-H ) :   1.0120 B(  1-C ,  2-O ) :   1.2212 B(  1-C ,  3-O ) :   1.1804 
B(  3-O , 22-H ) :   0.1043 B(  4-C ,  5-S ) :   0.7319 B(  4-C , 20-H ) :   0.9924 
B(  4-C , 21-H ) :   0.9400 B(  4-C , 28-H ) :   0.9718 B(  5-S , 14-W ) :   0.8311 
B(  6-C ,  7-S ) :   0.8583 B(  6-C ,  8-C ) :   1.4699 B(  6-C , 29-H ) :   1.0761 
B(  7-S ,  8-C ) :   0.1175 B(  7-S , 14-W ) :   1.0539 B(  8-C ,  9-S ) :   0.9255 
B(  8-C , 30-H ) :   1.1171 B(  9-S , 14-W ) :   0.9074 B( 10-C , 11-S ) :   0.9217 
B( 10-C , 12-C ) :   1.2823 B( 10-C , 26-H ) :   1.1303 B( 10-C , 27-H ) :  -0.1591 
B( 11-S , 14-W ) :   0.8804 B( 12-C , 13-S ) :   0.9374 B( 12-C , 26-H ) :  -0.1091 
B( 12-C , 27-H ) :   1.1678 B( 13-S , 14-W ) :   0.9992 B( 14-W , 15-O ) :   0.1058 
B( 14-W , 16-C ) :   1.2663 B( 14-W , 17-C ) :   0.8469 B( 15-O , 16-C ) :   0.1191 
B( 15-O , 17-C ) :   0.1280 B( 15-O , 22-H ) :   0.4295 B( 15-O , 23-H ) :   0.8050 
B( 16-C , 17-C ) :   1.0094 B( 16-C , 24-H ) :   0.9814 B( 17-C , 25-H ) :   1.0859 


-------
TIMINGS
-------

Total SCF time: 0 days 0 hours 0 min 35 sec 

Total time                  ....      35.020 sec
Sum of individual times     ....      33.734 sec  ( 96.3%)

Fock matrix formation       ....      24.505 sec  ( 70.0%)
  Split-RI-J                ....       8.842 sec  ( 36.1% of F)
  XC integration            ....      14.887 sec  ( 60.8% of F)
    Basis function eval.    ....       1.446 sec  (  9.7% of XC)
    Density eval.           ....       5.409 sec  ( 36.3% of XC)
    XC-Functional eval.     ....       0.157 sec  (  1.1% of XC)
    XC-Potential eval.      ....       6.982 sec  ( 46.9% of XC)
Diagonalization             ....       2.810 sec  (  8.0%)
Density matrix formation    ....       0.143 sec  (  0.4%)
Population analysis         ....       0.232 sec  (  0.7%)
Initial guess               ....       2.481 sec  (  7.1%)
Orbital Transformation      ....       0.000 sec  (  0.0%)
Orbital Orthonormalization  ....       0.000 sec  (  0.0%)
DIIS solution               ....       2.700 sec  (  7.7%)
Grid generation             ....       0.861 sec  (  2.5%)


-------------------------------------------------------------------------------
                          DFT DISPERSION CORRECTION                            
                                                                               
                              DFTD3 V3.1  Rev 1                                
                          USING Becke-Johnson damping                          
-------------------------------------------------------------------------------
The TPSS functional is recognized
Active option DFTDOPT                   ...         4   

molecular C6(AA) [au] = 23659.794733 


            DFT-D V3
 parameters
 s6 scaling factor         :     1.0000 
 a1 scaling factor         :     0.4535 
 s8 scaling factor         :     1.9435 
 a2 scaling factor         :     4.4752 
 ad hoc parameters k1-k3   :    16.0000     1.3333    -4.0000 

 Edisp/kcal,au: -47.005934711056  -0.074908717143 
 E6   /kcal   : -20.376416105 
 E8   /kcal   : -26.629518606 
 % E8         :  56.651396828 

-------------------------   ----------------
Dispersion correction           -0.074908717
-------------------------   ----------------


-------------------------   --------------------
FINAL SINGLE POINT ENERGY     -2635.884727935324
-------------------------   --------------------


                            ***************************************
                            *     ORCA property calculations      *
                            ***************************************

                                    ---------------------
                                    Active property flags
                                    ---------------------
   (+) Dipole Moment


------------------------------------------------------------------------------
                       ORCA ELECTRIC PROPERTIES CALCULATION
------------------------------------------------------------------------------

Dipole Moment Calculation                       ... on
Quadrupole Moment Calculation                   ... off
Polarizability Calculation                      ... off
GBWName                                         ... TMB06_T1.gbw
Electron density file                           ... TMB06_T1.scfp
The origin for moment calculation is the CENTER OF MASS  = ( 0.128534,  0.036235 -0.008375)

-------------
DIPOLE MOMENT
-------------
                                X             Y             Z
Electronic contribution:     97.92438       9.45051      10.80588
Nuclear contribution   :    -95.08812     -10.49452     -10.64317
                        -----------------------------------------
Total Dipole Moment    :      2.83626      -1.04401       0.16271
                        -----------------------------------------
Magnitude (a.u.)       :      3.02668
Magnitude (Debye)      :      7.69320



--------------------
Rotational spectrum 
--------------------
 
Rotational constants in cm-1:     0.011727     0.005648     0.005281 
Rotational constants in MHz :   351.552196   169.313101   158.324155 

 Dipole components along the rotational axes: 
x,y,z [a.u.] :     2.837914    -1.030729     0.211225 
x,y,z [Debye]:     7.213405    -2.619905     0.536892 

 

Timings for individual modules:

Sum of individual times         ...       40.570 sec (=   0.676 min)
GTO integral calculation        ...        5.203 sec (=   0.087 min)  12.8 %
SCF iterations                  ...       35.367 sec (=   0.589 min)  87.2 %
                             ****ORCA TERMINATED NORMALLY****
TOTAL RUN TIME: 0 days 0 hours 0 minutes 41 seconds 192 msec
