
                                 *****************
                                 * O   R   C   A *
                                 *****************

           --- An Ab Initio, DFT and Semiempirical electronic structure package ---

                  #######################################################
                  #                        -***-                        #
                  #          Department of theory and spectroscopy      #
                  #               Directorship: Frank Neese             #
                  #        Max Planck Institute fuer Kohlenforschung    #
                  #                Kaiser Wilhelm Platz 1               #
                  #                 D-45470 Muelheim/Ruhr               #
                  #                      Germany                        #
                  #                                                     #
                  #                  All rights reserved                #
                  #                        -***-                        #
                  #######################################################


                         Program Version 4.2.0 -  RELEASE  -


 With contributions from (in alphabetic order):
   Daniel Aravena         : Magnetic Suceptibility
   Michael Atanasov       : Ab Initio Ligand Field Theory (pilot matlab implementation)
   Alexander A. Auer      : GIAO ZORA, VPT2
   Ute Becker             : Parallelization
   Giovanni Bistoni       : ED, misc. LED, open-shell LED, HFLED
   Martin Brehm           : Molecular dynamics
   Dmytro Bykov           : SCF Hessian
   Vijay G. Chilkuri      : MRCI spin determinant printing, contributions to CSF-ICE
   Dipayan Datta          : RHF DLPNO-CCSD density
   Achintya Kumar Dutta   : EOM-CC, STEOM-CC
   Dmitry Ganyushin       : Spin-Orbit,Spin-Spin,Magnetic field MRCI
   Miquel Garcia          : C-PCM Hessian, Gaussian charge scheme
   Yang Guo               : DLPNO-NEVPT2, CIM, IAO-localization
   Andreas Hansen         : Spin unrestricted coupled pair/coupled cluster methods
   Benjamin Helmich-Paris : CASSCF linear response (MC-RPA)
   Lee Huntington         : MR-EOM, pCC
   Robert Izsak           : Overlap fitted RIJCOSX, COSX-SCS-MP3, EOM
   Christian Kollmar      : KDIIS, OOCD, Brueckner-CCSD(T), CCSD density
   Simone Kossmann        : Meta GGA functionals, TD-DFT gradient, OOMP2, MP2 Hessian
   Martin Krupicka        : AUTO-CI
   Lucas Lang             : DCDCAS
   Dagmar Lenk            : GEPOL surface, SMD
   Dimitrios Liakos       : Extrapolation schemes; Compound Job, initial MDCI parallelization
   Dimitrios Manganas     : Further ROCIS development; embedding schemes
   Dimitrios Pantazis     : SARC Basis sets
   Taras Petrenko         : DFT Hessian,TD-DFT gradient, ASA, ECA, R-Raman, ABS, FL, XAS/XES, NRVS
   Peter Pinski           : DLPNO-MP2, DLPNO-MP2 Gradient
   Christoph Reimann      : Effective Core Potentials
   Marius Retegan         : Local ZFS, SOC
   Christoph Riplinger    : Optimizer, TS searches, QM/MM, DLPNO-CCSD(T), (RO)-DLPNO pert. Triples
   Tobias Risthaus        : Range-separated hybrids, TD-DFT gradient, RPA, STAB
   Michael Roemelt        : Original ROCIS implementation
   Masaaki Saitow         : Open-shell DLPNO-CCSD energy and density
   Barbara Sandhoefer     : DKH picture change effects
   Avijit Sen             : IP-ROCIS
   Kantharuban Sivalingam : CASSCF convergence, NEVPT2, FIC-MRCI
   Bernardo de Souza      : ESD, SOC TD-DFT
   Georgi Stoychev        : AutoAux, RI-MP2 NMR
   Willem Van den Heuvel  : Paramagnetic NMR
   Boris Wezisla          : Elementary symmetry handling
   Frank Wennmohs         : Technical directorship


 We gratefully acknowledge several colleagues who have allowed us to
 interface, adapt or use parts of their codes:
   Stefan Grimme, W. Hujo, H. Kruse,             : VdW corrections, initial TS optimization,
                  C. Bannwarth                     DFT functionals, gCP, sTDA/sTD-DF
   Ed Valeev, F. Pavosevic, A. Kumar             : LibInt (2-el integral package), F12 methods
   Garnet Chan, S. Sharma, J. Yang, R. Olivares  : DMRG
   Ulf Ekstrom                                   : XCFun DFT Library
   Mihaly Kallay                                 : mrcc  (arbitrary order and MRCC methods)
   Andreas Klamt, Michael Diedenhofen            : otool_cosmo (COSMO solvation model)
   Jiri Pittner, Ondrej Demel                    : Mk-CCSD
   Frank Weinhold                                : gennbo (NPA and NBO analysis)
   Christopher J. Cramer and Donald G. Truhlar   : smd solvation model
   Lars Goerigk                                  : TD-DFT with DH, B97 family of functionals
   V. Asgeirsson, H. Jonsson                     : NEB implementation
   FAccTs GmbH                                   : IRC, NEB, NEB-TS, Multilevel, MM, QM/MM, CI optimization
   S Lehtola, MJT Oliveira, MAL Marques          : LibXC Library


 Your calculation uses the libint2 library for the computation of 2-el integrals
 For citations please refer to: http://libint.valeyev.net

 Your ORCA version has been built with support for libXC version: 4.2.3
 For citations please refer to: https://tddft.org/programs/libxc/

 This ORCA versions uses:
   CBLAS   interface :  Fast vector & matrix operations
   LAPACKE interface :  Fast linear algebra routines
   SCALAPACK package :  Parallel linear algebra routines


Your calculation utilizes the atom-pairwise dispersion correction
with the Becke-Johnson damping scheme (D3BJ)
Cite in your paper:
S.Grimme, S.Ehrlich, L.Goerigk, J Comput Chem, (2011), 32, 1456–1465 
S.Grimme, J.Antony, S.Ehrlich and H.Krieg, J.Chem.Phys., 132, (2010), 154104 
   

----- Orbital basis set information -----
Your calculation utilizes the basis: def2-TZVPPD
   F. Weigend and R. Ahlrichs, Phys. Chem. Chem. Phys. 7, 3297 (2005).
   D. Rappoport and F. Furche, J. Chem. Phys. 133 134105 (2010).

----- AuxJ basis set information -----
Your calculation utilizes the auxiliary basis: def2/J
   F. Weigend, Phys. Chem. Chem. Phys. 8, 1057 (2006).

cite the ECPs for Mo [Def2-ECP] as follows:
Ce-Yb(ecp-28): M. Dolg, H. Stoll, H.Preuss, J. Chem. Phys., 1989, 90, 1730-1734.
Y-Cd(ecp-28), Hf-Hg(ecp-46): D. Andrae,U. Haeussermann, M. Dolg, H. Stoll, H. Preuss, Theor. Chim. Acta, 1990, 77, 123-141.
In-Sb(ecp-28), Tl-Bi(ecp-46): B. Metz, H. Stoll, M. Dolg, J. Chem. Phys., 2000, 113, 2563-2569.
Te-Xe(ecp-28), Po-Rn(ecp-46): K. A. Peterson, D. Figgen, E. Goll, H. Stoll, M. Dolg, J. Chem. Phys., 2003, 119, 11113-11123.
Rb(ecp-28), Cs(ecp-46): T. Leininger, A. Nicklass, W. Kuechle, H. Stoll, M. Dolg, A. Bergner, Chem. Phys. Lett., 1996, 255, 274-280.
Sr(ecp-28), Ba(ecp-46): M. Kaupp, P. V. Schleyer, H. Stoll and H. Preuss, J. Chem. Phys., 1991, 94, 1360-1366.
La(ecp-46): M. Dolg, H. Stoll, A. Savin, H. Preuss, Theor. Chim. Acta, 1989, 75, 173-194.
Lu(ecp-28): X. Cao, M. Dolg, J. Chem. Phys., 2001, 115, 7348-7355.

ECP parameters for Mo [Def2-ECP] have been obtained from:
TURBOMOLE (7.0.2)

================================================================================
                                        WARNINGS
                       Please study these warnings very carefully!
================================================================================


INFO   : the flag for use of LIBINT has been found!

================================================================================
                                       INPUT FILE
================================================================================
NAME = TMB09_T1.in
|  1> #
|  2> # TMB09_T1 TPSS-D3BJ/Def2-TZVPPD
|  3> #
|  4> ! tpss d3bj def2-tzvppd def2/j grid4 nofinalgrid
|  5> 
|  6> *xyz 0 1
|  7> Mo       0.144293   -0.018278    0.187956 
|  8> C       -1.882744   -1.070987   -0.485243 
|  9> C       -1.076439    2.809087   -0.488683 
| 10> H       -1.056313    3.572787    0.310053 
| 11> H       -2.117393    2.730299   -0.852689 
| 12> H       -0.453643    3.172151   -1.326804 
| 13> C        1.996084   -2.290843   -0.946924 
| 14> C        2.556730    1.794509   -0.039409 
| 15> N       -0.610025    1.553803    0.004719 
| 16> O        1.936938    0.565567   -0.322724 
| 17> O        0.833025   -1.766355   -0.360705 
| 18> H        1.780871   -2.689531   -1.957376 
| 19> H        2.380311   -3.126092   -0.331250 
| 20> H        2.779790   -1.516765   -1.025980 
| 21> H        3.470410    1.892833   -0.654307 
| 22> H        2.854397    1.863620    1.026056 
| 23> H        1.897937    2.657406   -0.259961 
| 24> C       -0.134457   -0.284271    2.087106 
| 25> C       -1.864166   -1.358035    0.884748 
| 26> H        0.299474   -1.167843    2.578202 
| 27> H       -0.661177    0.399181    2.762773 
| 28> H       -1.449974   -2.303708    1.234049 
| 29> H       -2.567349   -0.858578    1.555883 
| 30> C       -2.930318   -0.174171   -1.105185 
| 31> H       -2.557155    0.344677   -2.001613 
| 32> H       -3.799822   -0.779414   -1.421129 
| 33> H       -3.293476    0.582538   -0.393193 
| 34> H       -1.444854   -1.827941   -1.140932 
| 35> *
| 36> 
| 37> %maxcore 5000
| 38> 
| 39> %pal
| 40> nprocs = 24
| 41> end
| 42> 
| 43> 
| 44>                          ****END OF INPUT****
================================================================================

                       ****************************
                       * Single Point Calculation *
                       ****************************

---------------------------------
CARTESIAN COORDINATES (ANGSTROEM)
---------------------------------
  Mo     0.144293   -0.018278    0.187956
  C     -1.882744   -1.070987   -0.485243
  C     -1.076439    2.809087   -0.488683
  H     -1.056313    3.572787    0.310053
  H     -2.117393    2.730299   -0.852689
  H     -0.453643    3.172151   -1.326804
  C      1.996084   -2.290843   -0.946924
  C      2.556730    1.794509   -0.039409
  N     -0.610025    1.553803    0.004719
  O      1.936938    0.565567   -0.322724
  O      0.833025   -1.766355   -0.360705
  H      1.780871   -2.689531   -1.957376
  H      2.380311   -3.126092   -0.331250
  H      2.779790   -1.516765   -1.025980
  H      3.470410    1.892833   -0.654307
  H      2.854397    1.863620    1.026056
  H      1.897937    2.657406   -0.259961
  C     -0.134457   -0.284271    2.087106
  C     -1.864166   -1.358035    0.884748
  H      0.299474   -1.167843    2.578202
  H     -0.661177    0.399181    2.762773
  H     -1.449974   -2.303708    1.234049
  H     -2.567349   -0.858578    1.555883
  C     -2.930318   -0.174171   -1.105185
  H     -2.557155    0.344677   -2.001613
  H     -3.799822   -0.779414   -1.421129
  H     -3.293476    0.582538   -0.393193
  H     -1.444854   -1.827941   -1.140932

----------------------------
CARTESIAN COORDINATES (A.U.)
----------------------------
  NO LB      ZA    FRAG     MASS         X           Y           Z
   0 Mo   14.0000*   0    95.940    0.272674   -0.034540    0.355185
   1 C     6.0000    0    12.011   -3.557871   -2.023872   -0.916976
   2 C     6.0000    0    12.011   -2.034175    5.308405   -0.923477
   3 H     1.0000    0     1.008   -1.996142    6.751589    0.585915
   4 H     1.0000    0     1.008   -4.001293    5.159517   -1.611349
   5 H     1.0000    0     1.008   -0.857261    5.994497   -2.507296
   6 C     6.0000    0    12.011    3.772052   -4.329066   -1.789427
   7 C     6.0000    0    12.011    4.831519    3.391131   -0.074472
   8 N     7.0000    0    14.007   -1.152780    2.936262    0.008918
   9 O     8.0000    0    15.999    3.660282    1.068767   -0.609860
  10 O     8.0000    0    15.999    1.574189   -3.337927   -0.681634
  11 H     1.0000    0     1.008    3.365358   -5.082477   -3.698905
  12 H     1.0000    0     1.008    4.498136   -5.907458   -0.625972
  13 H     1.0000    0     1.008    5.253042   -2.866270   -1.938821
  14 H     1.0000    0     1.008    6.558124    3.576936   -1.236461
  15 H     1.0000    0     1.008    5.394029    3.521731    1.938965
  16 H     1.0000    0     1.008    3.586581    5.021770   -0.491255
  17 C     6.0000    0    12.011   -0.254087   -0.537194    3.944059
  18 C     6.0000    0    12.011   -3.522763   -2.566314    1.671931
  19 H     1.0000    0     1.008    0.565924   -2.206903    4.872096
  20 H     1.0000    0     1.008   -1.249443    0.754343    5.220884
  21 H     1.0000    0     1.008   -2.740054   -4.353377    2.332015
  22 H     1.0000    0     1.008   -4.851587   -1.622477    2.940193
  23 C     6.0000    0    12.011   -5.537499   -0.329135   -2.088497
  24 H     1.0000    0     1.008   -4.832323    0.651345   -3.782500
  25 H     1.0000    0     1.008   -7.180623   -1.472879   -2.685545
  26 H     1.0000    0     1.008   -6.223768    1.100837   -0.743027
  27 H     1.0000    0     1.008   -2.730378   -3.454308   -2.156049
* core charge reduced due to ECP

--------------------------------
INTERNAL COORDINATES (ANGSTROEM)
--------------------------------
 Mo     0   0   0     0.000000000000     0.00000000     0.00000000
 C      1   0   0     2.381233321548     0.00000000     0.00000000
 C      1   2   0     3.153096857911    90.35416580     0.00000000
 H      3   1   2     1.105270077208   117.22287164   125.98189637
 H      3   1   2     1.105573673301   111.79438695     0.93323316
 H      3   1   2     1.105503114583   103.83186971   245.09209323
 C      1   2   3     3.143506672699    94.57678127   216.68676685
 C      1   2   3     3.026176437282   157.24926990   308.16077783
 N      3   1   2     1.427138911829     8.33579235    87.31623396
 O      8   1   2     1.405243022346    30.64532601   277.48267478
 O      7   1   2     1.404082125656    24.66757243   327.13618320
 H      7   1   2     1.107376178639   118.37357679    44.97133975
 H      7   1   2     1.106492545753   123.32566127   264.80956309
 H      7   1   2     1.104373893053    86.39702684   154.60695032
 H      8   1   2     1.105702628097   138.92033387   295.55831576
 H      8   1   2     1.108421237362   100.32403884   162.39971618
 H      8   1   2     1.107809836643    90.42894388    54.40925173
 C      1   2   3     1.937840179439    95.38999786   106.23184163
 C      2   1   3     1.399863220629    78.61953806   245.90319180
 H     18   1   2     1.100077666877   119.40723354    94.01901505
 H     18   1   2     1.095931790575   125.99730880   271.02019269
 H     19   2   1     1.089891565429   119.77641259   265.45198793
 H     19   2   1     1.092861297038   119.91738675   108.56187226
 C      2   1   3     1.511958434183   116.32713961     6.30003436
 H     24   2   1     1.100925533747   112.24433834    58.40885355
 H     24   2   1     1.105521101653   109.71783228   177.19901419
 H     24   2   1     1.100647469315   111.78755294   296.43929625
 H      2   1   3     1.093002779016    97.74258943   130.73038408

---------------------------
INTERNAL COORDINATES (A.U.)
---------------------------
 Mo     0   0   0     0.000000000000     0.00000000     0.00000000
 C      1   0   0     4.499878838694     0.00000000     0.00000000
 C      1   2   0     5.958489535180    90.35416580     0.00000000
 H      3   1   2     2.088657749942   117.22287164   125.98189637
 H      3   1   2     2.089231463412   111.79438695     0.93323316
 H      3   1   2     2.089098126759   103.83186971   245.09209323
 C      1   2   3     5.940366711556    94.57678127   216.68676685
 C      1   2   3     5.718644699389   157.24926990   308.16077783
 N      3   1   2     2.696901698419     8.33579235    87.31623396
 O      8   1   2     2.655524463838    30.64532601   277.48267478
 O      7   1   2     2.653330687023    24.66757243   327.13618320
 H      7   1   2     2.092637704856   118.37357679    44.97133975
 H      7   1   2     2.090967880698   123.32566127   264.80956309
 H      7   1   2     2.086964207322    86.39702684   154.60695032
 H      8   1   2     2.089475152660   138.92033387   295.55831576
 H      8   1   2     2.094612579636   100.32403884   162.39971618
 H      8   1   2     2.093457199718    90.42894388    54.40925173
 C      1   2   3     3.661987230449    95.38999786   106.23184163
 C      2   1   3     2.645358111937    78.61953806   245.90319180
 H     18   1   2     2.078845516440   119.40723354    94.01901505
 H     18   1   2     2.071010945645   125.99730880   271.02019269
 H     19   2   1     2.059596574332   119.77641259   265.45198793
 H     19   2   1     2.065208553763   119.91738675   108.56187226
 C      2   1   3     2.857187366478   116.32713961     6.30003436
 H     24   2   1     2.080447752624   112.24433834    58.40885355
 H     24   2   1     2.089132117396   109.71783228   177.19901419
 H     24   2   1     2.079922286998   111.78755294   296.43929625
 H      2   1   3     2.065475915955    97.74258943   130.73038408

---------------------
BASIS SET INFORMATION
---------------------
There are 5 groups of distinct atoms

 Group   1 Type Mo  : 7s7p5d2f1g contracted to 6s4p3d2f1g pattern {211111/4111/311/11/1}
 Group   2 Type C   : 12s6p3d1f contracted to 6s3p3d1f pattern {621111/411/111/1}
 Group   3 Type H   : 5s3p1d contracted to 3s3p1d pattern {311/111/1}
 Group   4 Type N   : 12s6p3d1f contracted to 6s3p3d1f pattern {621111/411/111/1}
 Group   5 Type O   : 12s7p3d1f contracted to 6s4p3d1f pattern {621111/4111/111/1}

Atom   0Mo   basis set group =>   1
Atom   1C    basis set group =>   2
Atom   2C    basis set group =>   2
Atom   3H    basis set group =>   3
Atom   4H    basis set group =>   3
Atom   5H    basis set group =>   3
Atom   6C    basis set group =>   2
Atom   7C    basis set group =>   2
Atom   8N    basis set group =>   4
Atom   9O    basis set group =>   5
Atom  10O    basis set group =>   5
Atom  11H    basis set group =>   3
Atom  12H    basis set group =>   3
Atom  13H    basis set group =>   3
Atom  14H    basis set group =>   3
Atom  15H    basis set group =>   3
Atom  16H    basis set group =>   3
Atom  17C    basis set group =>   2
Atom  18C    basis set group =>   2
Atom  19H    basis set group =>   3
Atom  20H    basis set group =>   3
Atom  21H    basis set group =>   3
Atom  22H    basis set group =>   3
Atom  23C    basis set group =>   2
Atom  24H    basis set group =>   3
Atom  25H    basis set group =>   3
Atom  26H    basis set group =>   3
Atom  27H    basis set group =>   3
---------------------------------
AUXILIARY/J BASIS SET INFORMATION
---------------------------------
There are 5 groups of distinct atoms

 Group   1 Type Mo  : 11s5p5d3f3g contracted to 8s5p5d2f3g pattern {41111111/11111/11111/21/111}
 Group   2 Type C   : 12s5p4d2f1g contracted to 6s4p3d1f1g pattern {711111/2111/211/2/1}
 Group   3 Type H   : 5s2p1d contracted to 3s1p1d pattern {311/2/1}
 Group   4 Type N   : 12s5p4d2f1g contracted to 6s4p3d1f1g pattern {711111/2111/211/2/1}
 Group   5 Type O   : 12s5p4d2f1g contracted to 6s4p3d1f1g pattern {711111/2111/211/2/1}

Atom   0Mo   basis set group =>   1
Atom   1C    basis set group =>   2
Atom   2C    basis set group =>   2
Atom   3H    basis set group =>   3
Atom   4H    basis set group =>   3
Atom   5H    basis set group =>   3
Atom   6C    basis set group =>   2
Atom   7C    basis set group =>   2
Atom   8N    basis set group =>   4
Atom   9O    basis set group =>   5
Atom  10O    basis set group =>   5
Atom  11H    basis set group =>   3
Atom  12H    basis set group =>   3
Atom  13H    basis set group =>   3
Atom  14H    basis set group =>   3
Atom  15H    basis set group =>   3
Atom  16H    basis set group =>   3
Atom  17C    basis set group =>   2
Atom  18C    basis set group =>   2
Atom  19H    basis set group =>   3
Atom  20H    basis set group =>   3
Atom  21H    basis set group =>   3
Atom  22H    basis set group =>   3
Atom  23C    basis set group =>   2
Atom  24H    basis set group =>   3
Atom  25H    basis set group =>   3
Atom  26H    basis set group =>   3
Atom  27H    basis set group =>   3
-------------------------
ECP PARAMETER INFORMATION
-------------------------

 Group 1, Type Mo ECP Def2-ECP (replacing 28 core electrons, lmax=3)

Atom   0Mo   ECP group =>   1



           ************************************************************
           *        Program running with 24 parallel MPI-processes    *
           *              working on a common directory               *
           ************************************************************
------------------------------------------------------------------------------
                           ORCA GTO INTEGRAL CALCULATION
                           -- RI-GTO INTEGRALS CHOSEN --
------------------------------------------------------------------------------

                         BASIS SET STATISTICS AND STARTUP INFO

Gaussian basis set:
 # of primitive gaussian shells          ...  397
 # of primitive gaussian functions       ...  925
 # of contracted shells                  ...  267
 # of contracted basis functions         ...  721
 Highest angular momentum                ...    4
 Maximum contraction depth               ...    6
Auxiliary gaussian basis set:
 # of primitive gaussian shells          ...  403
 # of primitive gaussian functions       ... 1071
 # of contracted shells                  ...  258
 # of contracted aux-basis functions     ...  766
 Highest angular momentum                ...    4
 Maximum contraction depth               ...    7
Ratio of auxiliary to basis functions    ...  1.06
Integral package used                  ... LIBINT
 One Electron integrals                  
   ECP integrals                         ... done
 Ordering auxiliary basis shells         ... done
 Integral threshhold             Thresh  ...  1.000e-10
 Primitive cut-off               TCut    ...  1.000e-11
 Pre-screening matrix                    ... done
 Shell pair data                         ... 
 Ordering of the shell pairs             ... done (   0.005 sec) 30801 of 35778 pairs
 Determination of significant pairs      ... done (   0.000 sec)
 Creation of shell pair data             ... done (   0.003 sec)
 Storage of shell pair data              ... done (   0.006 sec)
 Shell pair data done in (   0.015 sec)
 Computing two index integrals           ... done
 Cholesky decomposition of the V-matrix  ... done


Timings:
 Total evaluation time                   ...   2.925 sec (  0.049 min)
 One electron matrix time                ...   2.585 sec (  0.043 min) = 88.4%
 Schwartz matrix evaluation time         ...   0.273 sec (  0.005 min) =  9.3%
 Two index repulsion integral time       ...   0.013 sec (  0.000 min) =  0.5%
 Cholesky decomposition of V             ...   0.010 sec (  0.000 min) =  0.3%
 Three index repulsion integral time     ...   0.000 sec (  0.000 min) =  0.0%



           ************************************************************
           *        Program running with 24 parallel MPI-processes    *
           *              working on a common directory               *
           ************************************************************
-------------------------------------------------------------------------------
                                 ORCA SCF
-------------------------------------------------------------------------------

------------
SCF SETTINGS
------------
Hamiltonian:
 Density Functional     Method          .... DFT(GTOs)
 Exchange Functional    Exchange        .... TPSS
 Correlation Functional Correlation     .... TPSS
 LDA part of GGA corr.  LDAOpt          .... PW91-LDA
 Gradients option       PostSCFGGA      .... off
   Density functional embedding theory  .... OFF
   NL short-range parameter             ....  5.000000
 RI-approximation to the Coulomb term is turned on
   Number of auxiliary basis functions  .... 766


General Settings:
 Integral files         IntName         .... TMB09_T1
 Hartree-Fock type      HFTyp           .... RHF
 Total Charge           Charge          ....    0
 Multiplicity           Mult            ....    1
 Number of Electrons    NEL             ....   96
 Basis Dimension        Dim             ....  721
 Nuclear Repulsion      ENuc            ....    772.8237984215 Eh

Convergence Acceleration:
 DIIS                   CNVDIIS         .... on
   Start iteration      DIISMaxIt       ....    12
   Startup error        DIISStart       ....  0.200000
   # of expansion vecs  DIISMaxEq       ....     5
   Bias factor          DIISBfac        ....   1.050
   Max. coefficient     DIISMaxC        ....  10.000
 Newton-Raphson         CNVNR           .... off
 SOSCF                  CNVSOSCF        .... off
 Level Shifting         CNVShift        .... on
   Level shift para.    LevelShift      ....    0.2500
   Turn off err/grad.   ShiftErr        ....    0.0010
 Zerner damping         CNVZerner       .... off
 Static damping         CNVDamp         .... on
   Fraction old density DampFac         ....    0.7000
   Max. Damping (<1)    DampMax         ....    0.9800
   Min. Damping (>=0)   DampMin         ....    0.0000
   Turn off err/grad.   DampErr         ....    0.1000
 Fernandez-Rico         CNVRico         .... off

SCF Procedure:
 Maximum # iterations   MaxIter         ....   125
 SCF integral mode      SCFMode         .... Direct
   Integral package                     .... LIBINT
 Reset frequency        DirectResetFreq ....    20
 Integral Threshold     Thresh          ....  1.000e-10 Eh
 Primitive CutOff       TCut            ....  1.000e-11 Eh

Convergence Tolerance:
 Convergence Check Mode ConvCheckMode   .... Total+1el-Energy
 Convergence forced     ConvForced      .... 0
 Energy Change          TolE            ....  1.000e-06 Eh
 1-El. energy change                    ....  1.000e-03 Eh
 DIIS Error             TolErr          ....  1.000e-06


Diagonalization of the overlap matrix:
Smallest eigenvalue                        ... 2.613e-06
Time for diagonalization                   ...    0.100 sec
Threshold for overlap eigenvalues          ... 1.000e-08
Number of eigenvalues below threshold      ... 0
Time for construction of square roots      ...    0.067 sec
Total time needed                          ...    0.169 sec

-------------------
DFT GRID GENERATION
-------------------

General Integration Accuracy     IntAcc      ...  4.670
Radial Grid Type                 RadialGrid  ... Gauss-Chebyshev
Angular Grid (max. acc.)         AngularGrid ... Lebedev-302
Angular grid pruning method      GridPruning ... 3 (G Style)
Weight generation scheme         WeightScheme... Becke
Basis function cutoff            BFCut       ...    1.0000e-10
Integration weight cutoff        WCut        ...    1.0000e-14
Grids for H and He will be reduced by one unit

# of grid points (after initial pruning)     ... 130416 (   0.0 sec)
# of grid points (after weights+screening)   ... 116069 (   0.1 sec)
nearest neighbour list constructed           ...    0.0 sec
Grid point re-assignment to atoms done       ...    0.0 sec
Grid point division into batches done        ...    0.3 sec
Reduced shell lists constructed in    0.5 sec

Total number of grid points                  ...   116069
Total number of batches                      ...     1829
Average number of points per batch           ...       63
Average number of grid points per atom       ...     4145
Average number of shells per batch           ...   194.05 (72.68%)
Average number of basis functions per batch  ...   535.85 (74.32%)
Average number of large shells per batch     ...   151.29 (77.97%)
Average number of large basis fcns per batch ...   410.37 (76.58%)
Maximum spatial batch extension              ...   2.09,  2.19,  2.23 au
Average spatial batch extension              ...   0.05,  0.05,  0.05 au

Time for grid setup =    0.575 sec

------------------------------
INITIAL GUESS: MODEL POTENTIAL
------------------------------
Loading Hartree-Fock densities                     ... done
  calling /sw/apps/orca/orca_4_2_0_linux_x86-64_openmpi314/orca TMB09_T1_atom42.inp > TMB09_T1_atom42.out in order to generate an atomic fitting density for atom 0 (Mo with ECP) on-the-fly... 
    atom 0 (Mo), assumed electronic state with S=5: 1s2 2s2 2p6 3s2 3p6 4s2 3d10 4p6 5s2 4d4           ... done
Calculating cut-offs                               ... done
Setting up the integral package                    ... done
Initializing the effective Hamiltonian             ... done
Starting the Coulomb interaction                   ... done (   0.1 sec)
Reading the grid                                   ... done
Mapping shells                                     ... done
Starting the XC term evaluation                    ... done (   0.3 sec)
  promolecular density results
     # of electrons  =    123.992171550
     EX              =   -182.819410216
     EC              =     -4.828570886
     EX+EC           =   -187.647981103
Transforming the Hamiltonian                       ... done (   0.0 sec)
Diagonalizing the Hamiltonian                      ... done (   0.1 sec)
Back transforming the eigenvectors                 ... done (   0.0 sec)
Now organizing SCF variables                       ... done
                      ------------------
                      INITIAL GUESS DONE (   2.9 sec)
                      ------------------
--------------
SCF ITERATIONS
--------------
ITER       Energy         Delta-E        Max-DP      RMS-DP      [F,P]     Damp
               ***  Starting incremental Fock matrix formation  ***
  0   -550.1582322462   0.000000000000 0.49605969  0.00165118  0.3891970 0.7000
  1   -550.4293074433  -0.271075197174 0.16467060  0.00099415  0.3001472 0.7000
  2   -550.5065491278  -0.077241684440 0.21727726  0.00081845  0.2124827 0.7000
                               ***Turning on DIIS***
  3   -550.5678145008  -0.061265373014 0.11976662  0.00051364  0.1415047 0.7000
  4   -550.6074238574  -0.039609356583 0.14008678  0.00099282  0.0951761 0.0000
  5   -550.7019622413  -0.094538383905 0.02696038  0.00016792  0.0226491 0.0000
  6   -550.7033841950  -0.001421953689 0.02111748  0.00009566  0.0127184 0.0000
  7   -550.7038411934  -0.000456998391 0.00364856  0.00003660  0.0014906 0.0000
  8   -550.7038585696  -0.000017376237 0.00346086  0.00003210  0.0008571 0.0000
  9   -550.7038553695   0.000003200120 0.00216606  0.00000609  0.0014998 0.0000
 10   -550.7038617545  -0.000006385056 0.00160774  0.00000885  0.0004499 0.0000
 11   -550.7038624430  -0.000000688436 0.00171654  0.00000734  0.0002726 0.0000
 12   -550.7038626506  -0.000000207668 0.00114061  0.00000562  0.0002376 0.0000
                 **** Energy Check signals convergence ****

               *****************************************************
               *                     SUCCESS                       *
               *           SCF CONVERGED AFTER  13 CYCLES          *
               *****************************************************


----------------
TOTAL SCF ENERGY
----------------

Total Energy       :         -550.70386272 Eh          -14985.41395 eV

Components:
Nuclear Repulsion  :          772.82379842 Eh           21029.60468 eV
Electronic Energy  :        -1323.52766114 Eh          -36015.01863 eV
One Electron Energy:        -2307.56039096 Eh          -62791.91052 eV
Two Electron Energy:          984.03272982 Eh           26776.89189 eV

Virial components:
Potential Energy   :        -1053.82141775 Eh          -28675.93863 eV
Kinetic Energy     :          503.11755503 Eh           13690.52469 eV
Virial Ratio       :            2.09458288


DFT components:
N(Alpha)           :       47.999977921423 electrons
N(Beta)            :       47.999977921423 electrons
N(Total)           :       95.999955842846 electrons
E(X)               :      -73.070657375162 Eh       
E(C)               :       -3.245426787023 Eh       
E(XC)              :      -76.316084162186 Eh       
DFET-embed. en.    :        0.000000000000 Eh       

---------------
SCF CONVERGENCE
---------------

  Last Energy change         ...   -6.9555e-08  Tolerance :   1.0000e-06
  Last MAX-Density change    ...    2.3311e-03  Tolerance :   1.0000e-05
  Last RMS-Density change    ...    8.1904e-06  Tolerance :   1.0000e-06
  Last DIIS Error            ...    7.4557e-05  Tolerance :   1.0000e-06

             **** THE GBW FILE WAS UPDATED (TMB09_T1.gbw) ****
             **** DENSITY FILE WAS UPDATED (TMB09_T1.scfp) ****
             **** ENERGY FILE WAS UPDATED (TMB09_T1.en.tmp) ****
             **** THE GBW FILE WAS UPDATED (TMB09_T1.gbw) ****
             **** DENSITY FILE WAS UPDATED (TMB09_T1.scfp) ****
----------------
ORBITAL ENERGIES
----------------

  NO   OCC          E(Eh)            E(eV) 
   0   2.0000     -18.850371      -512.9447 
   1   2.0000     -18.849515      -512.9214 
   2   2.0000     -14.092337      -383.4720 
   3   2.0000     -10.022449      -272.7247 
   4   2.0000     -10.016323      -272.5580 
   5   2.0000     -10.013215      -272.4734 
   6   2.0000     -10.008709      -272.3508 
   7   2.0000      -9.998563      -272.0747 
   8   2.0000      -9.994996      -271.9777 
   9   2.0000      -9.991009      -271.8692 
  10   2.0000      -2.491266       -67.7908 
  11   2.0000      -1.530082       -41.6356 
  12   2.0000      -1.520292       -41.3692 
  13   2.0000      -1.513768       -41.1917 
  14   2.0000      -0.894012       -24.3273 
  15   2.0000      -0.886964       -24.1355 
  16   2.0000      -0.779596       -21.2139 
  17   2.0000      -0.739343       -20.1185 
  18   2.0000      -0.646064       -17.5803 
  19   2.0000      -0.598538       -16.2871 
  20   2.0000      -0.596526       -16.2323 
  21   2.0000      -0.591635       -16.0992 
  22   2.0000      -0.574002       -15.6194 
  23   2.0000      -0.522127       -14.2078 
  24   2.0000      -0.438437       -11.9305 
  25   2.0000      -0.412489       -11.2244 
  26   2.0000      -0.405473       -11.0335 
  27   2.0000      -0.402561       -10.9542 
  28   2.0000      -0.399979       -10.8840 
  29   2.0000      -0.394486       -10.7345 
  30   2.0000      -0.386437       -10.5155 
  31   2.0000      -0.382885       -10.4188 
  32   2.0000      -0.377053       -10.2601 
  33   2.0000      -0.373117       -10.1530 
  34   2.0000      -0.371815       -10.1176 
  35   2.0000      -0.355843        -9.6830 
  36   2.0000      -0.350941        -9.5496 
  37   2.0000      -0.340890        -9.2761 
  38   2.0000      -0.319221        -8.6864 
  39   2.0000      -0.305312        -8.3080 
  40   2.0000      -0.279771        -7.6129 
  41   2.0000      -0.258904        -7.0451 
  42   2.0000      -0.250762        -6.8236 
  43   2.0000      -0.234063        -6.3692 
  44   2.0000      -0.225344        -6.1319 
  45   2.0000      -0.217437        -5.9167 
  46   2.0000      -0.208555        -5.6751 
  47   2.0000      -0.187769        -5.1094 
  48   0.0000      -0.065375        -1.7789 
  49   0.0000      -0.063015        -1.7147 
  50   0.0000      -0.050123        -1.3639 
  51   0.0000      -0.029893        -0.8134 
  52   0.0000      -0.014107        -0.3839 
  53   0.0000      -0.003814        -0.1038 
  54   0.0000       0.007478         0.2035 
  55   0.0000       0.010730         0.2920 
  56   0.0000       0.013908         0.3785 
  57   0.0000       0.027929         0.7600 
  58   0.0000       0.035488         0.9657 
  59   0.0000       0.037940         1.0324 
  60   0.0000       0.042702         1.1620 
  61   0.0000       0.044471         1.2101 
  62   0.0000       0.052359         1.4248 
  63   0.0000       0.062399         1.6980 
  64   0.0000       0.067392         1.8338 
  65   0.0000       0.070066         1.9066 
  66   0.0000       0.072851         1.9824 
  67   0.0000       0.077067         2.0971 
  68   0.0000       0.083515         2.2726 
  69   0.0000       0.088662         2.4126 
  70   0.0000       0.090239         2.4555 
  71   0.0000       0.098433         2.6785 
  72   0.0000       0.100966         2.7474 
  73   0.0000       0.109398         2.9769 
  74   0.0000       0.111154         3.0247 
  75   0.0000       0.114379         3.1124 
  76   0.0000       0.122632         3.3370 
  77   0.0000       0.129586         3.5262 
  78   0.0000       0.136132         3.7043 
  79   0.0000       0.141699         3.8558 
  80   0.0000       0.145085         3.9480 
  81   0.0000       0.148736         4.0473 
  82   0.0000       0.155357         4.2275 
  83   0.0000       0.156459         4.2575 
  84   0.0000       0.161704         4.4002 
  85   0.0000       0.164326         4.4715 
  86   0.0000       0.166349         4.5266 
  87   0.0000       0.173178         4.7124 
  88   0.0000       0.174297         4.7429 
  89   0.0000       0.182293         4.9605 
  90   0.0000       0.186572         5.0769 
  91   0.0000       0.191045         5.1986 
  92   0.0000       0.193547         5.2667 
  93   0.0000       0.199013         5.4154 
  94   0.0000       0.201716         5.4890 
  95   0.0000       0.204451         5.5634 
  96   0.0000       0.214166         5.8277 
  97   0.0000       0.220203         5.9920 
  98   0.0000       0.223381         6.0785 
  99   0.0000       0.229214         6.2372 
 100   0.0000       0.232767         6.3339 
 101   0.0000       0.233962         6.3664 
 102   0.0000       0.236065         6.4237 
 103   0.0000       0.239790         6.5250 
 104   0.0000       0.245574         6.6824 
 105   0.0000       0.250674         6.8212 
 106   0.0000       0.252157         6.8615 
 107   0.0000       0.257458         7.0058 
 108   0.0000       0.259072         7.0497 
 109   0.0000       0.267202         7.2709 
 110   0.0000       0.268276         7.3002 
 111   0.0000       0.271278         7.3818 
 112   0.0000       0.272874         7.4253 
 113   0.0000       0.275780         7.5044 
 114   0.0000       0.279985         7.6188 
 115   0.0000       0.283459         7.7133 
 116   0.0000       0.286038         7.7835 
 117   0.0000       0.289101         7.8668 
 118   0.0000       0.293621         7.9898 
 119   0.0000       0.294170         8.0048 
 120   0.0000       0.299585         8.1521 
 121   0.0000       0.301871         8.2143 
 122   0.0000       0.304030         8.2731 
 123   0.0000       0.308983         8.4079 
 124   0.0000       0.314505         8.5581 
 125   0.0000       0.316240         8.6053 
 126   0.0000       0.317407         8.6371 
 127   0.0000       0.321864         8.7584 
 128   0.0000       0.324698         8.8355 
 129   0.0000       0.326562         8.8862 
 130   0.0000       0.327932         8.9235 
 131   0.0000       0.333564         9.0767 
 132   0.0000       0.337999         9.1974 
 133   0.0000       0.342736         9.3263 
 134   0.0000       0.344751         9.3812 
 135   0.0000       0.351467         9.5639 
 136   0.0000       0.353414         9.6169 
 137   0.0000       0.357546         9.7293 
 138   0.0000       0.360454         9.8084 
 139   0.0000       0.364413         9.9162 
 140   0.0000       0.370204        10.0738 
 141   0.0000       0.372035        10.1236 
 142   0.0000       0.372635        10.1399 
 143   0.0000       0.377353        10.2683 
 144   0.0000       0.385363        10.4863 
 145   0.0000       0.386632        10.5208 
 146   0.0000       0.391603        10.6561 
 147   0.0000       0.394629        10.7384 
 148   0.0000       0.398562        10.8454 
 149   0.0000       0.403881        10.9902 
 150   0.0000       0.405097        11.0233 
 151   0.0000       0.410011        11.1570 
 152   0.0000       0.413764        11.2591 
 153   0.0000       0.418634        11.3916 
 154   0.0000       0.423120        11.5137 
 155   0.0000       0.424673        11.5559 
 156   0.0000       0.425341        11.5741 
 157   0.0000       0.433139        11.7863 
 158   0.0000       0.434582        11.8256 
 159   0.0000       0.435813        11.8591 
 160   0.0000       0.440895        11.9974 
 161   0.0000       0.445122        12.1124 
 162   0.0000       0.453263        12.3339 
 163   0.0000       0.457427        12.4472 
 164   0.0000       0.459755        12.5106 
 165   0.0000       0.463575        12.6145 
 166   0.0000       0.470991        12.8163 
 167   0.0000       0.476127        12.9561 
 168   0.0000       0.476980        12.9793 
 169   0.0000       0.478673        13.0254 
 170   0.0000       0.487173        13.2567 
 171   0.0000       0.493355        13.4249 
 172   0.0000       0.498914        13.5761 
 173   0.0000       0.500190        13.6109 
 174   0.0000       0.506238        13.7754 
 175   0.0000       0.510177        13.8826 
 176   0.0000       0.511899        13.9295 
 177   0.0000       0.518211        14.1012 
 178   0.0000       0.522708        14.2236 
 179   0.0000       0.527170        14.3450 
 180   0.0000       0.536114        14.5884 
 181   0.0000       0.541834        14.7441 
 182   0.0000       0.545966        14.8565 
 183   0.0000       0.551423        15.0050 
 184   0.0000       0.555150        15.1064 
 185   0.0000       0.562298        15.3009 
 186   0.0000       0.563403        15.3310 
 187   0.0000       0.570038        15.5115 
 188   0.0000       0.576839        15.6966 
 189   0.0000       0.582412        15.8482 
 190   0.0000       0.586797        15.9676 
 191   0.0000       0.594858        16.1869 
 192   0.0000       0.598130        16.2759 
 193   0.0000       0.606716        16.5096 
 194   0.0000       0.608450        16.5568 
 195   0.0000       0.613269        16.6879 
 196   0.0000       0.621101        16.9010 
 197   0.0000       0.625203        17.0126 
 198   0.0000       0.632808        17.2196 
 199   0.0000       0.637422        17.3451 
 200   0.0000       0.645756        17.5719 
 201   0.0000       0.646478        17.5916 
 202   0.0000       0.648577        17.6487 
 203   0.0000       0.656409        17.8618 
 204   0.0000       0.657760        17.8986 
 205   0.0000       0.665157        18.0998 
 206   0.0000       0.666781        18.1440 
 207   0.0000       0.672520        18.3002 
 208   0.0000       0.675766        18.3885 
 209   0.0000       0.680487        18.5170 
 210   0.0000       0.682104        18.5610 
 211   0.0000       0.686841        18.6899 
 212   0.0000       0.690291        18.7838 
 213   0.0000       0.693358        18.8672 
 214   0.0000       0.696166        18.9436 
 215   0.0000       0.701682        19.0937 
 216   0.0000       0.707778        19.2596 
 217   0.0000       0.713493        19.4151 
 218   0.0000       0.720543        19.6070 
 219   0.0000       0.723722        19.6935 
 220   0.0000       0.729252        19.8440 
 221   0.0000       0.730074        19.8663 
 222   0.0000       0.734744        19.9934 
 223   0.0000       0.740900        20.1609 
 224   0.0000       0.744819        20.2676 
 225   0.0000       0.747065        20.3287 
 226   0.0000       0.750664        20.4266 
 227   0.0000       0.755576        20.5603 
 228   0.0000       0.761148        20.7119 
 229   0.0000       0.763434        20.7741 
 230   0.0000       0.766876        20.8677 
 231   0.0000       0.775571        21.1044 
 232   0.0000       0.778431        21.1822 
 233   0.0000       0.785182        21.3659 
 234   0.0000       0.788988        21.4695 
 235   0.0000       0.794405        21.6169 
 236   0.0000       0.803861        21.8742 
 237   0.0000       0.810615        22.0580 
 238   0.0000       0.814602        22.1665 
 239   0.0000       0.825240        22.4559 
 240   0.0000       0.835481        22.7346 
 241   0.0000       0.844085        22.9687 
 242   0.0000       0.846770        23.0418 
 243   0.0000       0.857571        23.3357 
 244   0.0000       0.868087        23.6218 
 245   0.0000       0.873479        23.7686 
 246   0.0000       0.876759        23.8578 
 247   0.0000       0.885176        24.0869 
 248   0.0000       0.900354        24.4999 
 249   0.0000       0.908396        24.7187 
 250   0.0000       0.912092        24.8193 
 251   0.0000       0.928064        25.2539 
 252   0.0000       0.936954        25.4958 
 253   0.0000       0.941251        25.6127 
 254   0.0000       0.959430        26.1074 
 255   0.0000       0.961909        26.1749 
 256   0.0000       0.974748        26.5243 
 257   0.0000       0.978116        26.6159 
 258   0.0000       0.986070        26.8323 
 259   0.0000       1.003219        27.2990 
 260   0.0000       1.008968        27.4554 
 261   0.0000       1.021265        27.7900 
 262   0.0000       1.023740        27.8574 
 263   0.0000       1.035372        28.1739 
 264   0.0000       1.040242        28.3064 
 265   0.0000       1.049537        28.5593 
 266   0.0000       1.052773        28.6474 
 267   0.0000       1.056567        28.7507 
 268   0.0000       1.064983        28.9797 
 269   0.0000       1.067808        29.0565 
 270   0.0000       1.082709        29.4620 
 271   0.0000       1.089118        29.6364 
 272   0.0000       1.092590        29.7309 
 273   0.0000       1.100587        29.9485 
 274   0.0000       1.106662        30.1138 
 275   0.0000       1.121161        30.5083 
 276   0.0000       1.128500        30.7081 
 277   0.0000       1.134343        30.8670 
 278   0.0000       1.139359        31.0035 
 279   0.0000       1.148834        31.2613 
 280   0.0000       1.157703        31.5027 
 281   0.0000       1.166144        31.7324 
 282   0.0000       1.174163        31.9506 
 283   0.0000       1.179619        32.0991 
 284   0.0000       1.183795        32.2127 
 285   0.0000       1.193741        32.4833 
 286   0.0000       1.199553        32.6415 
 287   0.0000       1.205224        32.7958 
 288   0.0000       1.214404        33.0456 
 289   0.0000       1.217637        33.1336 
 290   0.0000       1.218562        33.1588 
 291   0.0000       1.231953        33.5231 
 292   0.0000       1.245768        33.8991 
 293   0.0000       1.254709        34.1424 
 294   0.0000       1.258966        34.2582 
 295   0.0000       1.266434        34.4614 
 296   0.0000       1.274413        34.6785 
 297   0.0000       1.281331        34.8668 
 298   0.0000       1.285504        34.9803 
 299   0.0000       1.291141        35.1337 
 300   0.0000       1.300732        35.3947 
 301   0.0000       1.302769        35.4501 
 302   0.0000       1.306292        35.5460 
 303   0.0000       1.320315        35.9276 
 304   0.0000       1.333458        36.2852 
 305   0.0000       1.335947        36.3530 
 306   0.0000       1.341445        36.5026 
 307   0.0000       1.347989        36.6807 
 308   0.0000       1.351948        36.7884 
 309   0.0000       1.358248        36.9598 
 310   0.0000       1.366625        37.1877 
 311   0.0000       1.374012        37.3888 
 312   0.0000       1.380425        37.5633 
 313   0.0000       1.391893        37.8753 
 314   0.0000       1.393732        37.9254 
 315   0.0000       1.400167        38.1005 
 316   0.0000       1.406225        38.2653 
 317   0.0000       1.415184        38.5091 
 318   0.0000       1.418873        38.6095 
 319   0.0000       1.433188        38.9990 
 320   0.0000       1.436898        39.1000 
 321   0.0000       1.442562        39.2541 
 322   0.0000       1.448147        39.4061 
 323   0.0000       1.454614        39.5821 
 324   0.0000       1.467441        39.9311 
 325   0.0000       1.471454        40.0403 
 326   0.0000       1.482408        40.3384 
 327   0.0000       1.484114        40.3848 
 328   0.0000       1.498056        40.7642 
 329   0.0000       1.505312        40.9616 
 330   0.0000       1.515023        41.2259 
 331   0.0000       1.525102        41.5001 
 332   0.0000       1.531428        41.6723 
 333   0.0000       1.538277        41.8587 
 334   0.0000       1.564045        42.5598 
 335   0.0000       1.569446        42.7068 
 336   0.0000       1.573320        42.8122 
 337   0.0000       1.581755        43.0417 
 338   0.0000       1.592449        43.3327 
 339   0.0000       1.596399        43.4402 
 340   0.0000       1.601664        43.5835 
 341   0.0000       1.618786        44.0494 
 342   0.0000       1.631209        44.3875 
 343   0.0000       1.634065        44.4652 
 344   0.0000       1.637435        44.5569 
 345   0.0000       1.648328        44.8533 
 346   0.0000       1.659147        45.1477 
 347   0.0000       1.663631        45.2697 
 348   0.0000       1.669126        45.4192 
 349   0.0000       1.673872        45.5484 
 350   0.0000       1.683480        45.8098 
 351   0.0000       1.691261        46.0216 
 352   0.0000       1.704562        46.3835 
 353   0.0000       1.707264        46.4570 
 354   0.0000       1.731839        47.1257 
 355   0.0000       1.743966        47.4557 
 356   0.0000       1.752718        47.6939 
 357   0.0000       1.767550        48.0975 
 358   0.0000       1.776485        48.3406 
 359   0.0000       1.799084        48.9556 
 360   0.0000       1.808629        49.2153 
 361   0.0000       1.823287        49.6142 
 362   0.0000       1.831691        49.8429 
 363   0.0000       1.855923        50.5022 
 364   0.0000       1.865533        50.7637 
 365   0.0000       1.886832        51.3433 
 366   0.0000       1.892596        51.5002 
 367   0.0000       1.905414        51.8490 
 368   0.0000       1.916857        52.1603 
 369   0.0000       1.929949        52.5166 
 370   0.0000       1.933475        52.6125 
 371   0.0000       1.938475        52.7486 
 372   0.0000       1.953040        53.1449 
 373   0.0000       1.960352        53.3439 
 374   0.0000       1.974686        53.7339 
 375   0.0000       1.987952        54.0949 
 376   0.0000       1.999376        54.4058 
 377   0.0000       2.010277        54.7024 
 378   0.0000       2.020631        54.9842 
 379   0.0000       2.034667        55.3661 
 380   0.0000       2.059718        56.0478 
 381   0.0000       2.064608        56.1808 
 382   0.0000       2.098868        57.1131 
 383   0.0000       2.113521        57.5118 
 384   0.0000       2.120876        57.7120 
 385   0.0000       2.138480        58.1910 
 386   0.0000       2.171293        59.0839 
 387   0.0000       2.192754        59.6679 
 388   0.0000       2.227221        60.6058 
 389   0.0000       2.247470        61.1568 
 390   0.0000       2.248354        61.1808 
 391   0.0000       2.261720        61.5445 
 392   0.0000       2.275983        61.9326 
 393   0.0000       2.299400        62.5699 
 394   0.0000       2.312280        62.9203 
 395   0.0000       2.316888        63.0457 
 396   0.0000       2.330719        63.4221 
 397   0.0000       2.362689        64.2920 
 398   0.0000       2.394007        65.1442 
 399   0.0000       2.402945        65.3875 
 400   0.0000       2.442539        66.4649 
 401   0.0000       2.477959        67.4287 
 402   0.0000       2.496226        67.9258 
 403   0.0000       2.507091        68.2214 
 404   0.0000       2.537044        69.0365 
 405   0.0000       2.554464        69.5105 
 406   0.0000       2.571367        69.9705 
 407   0.0000       2.585621        70.3583 
 408   0.0000       2.591931        70.5300 
 409   0.0000       2.598678        70.7136 
 410   0.0000       2.618788        71.2608 
 411   0.0000       2.639213        71.8166 
 412   0.0000       2.668675        72.6183 
 413   0.0000       2.688179        73.1491 
 414   0.0000       2.696931        73.3872 
 415   0.0000       2.721793        74.0638 
 416   0.0000       2.733486        74.3819 
 417   0.0000       2.746588        74.7384 
 418   0.0000       2.759641        75.0936 
 419   0.0000       2.769375        75.3585 
 420   0.0000       2.775582        75.5274 
 421   0.0000       2.787000        75.8381 
 422   0.0000       2.804309        76.3091 
 423   0.0000       2.813674        76.5640 
 424   0.0000       2.821080        76.7655 
 425   0.0000       2.824182        76.8499 
 426   0.0000       2.829578        76.9967 
 427   0.0000       2.839266        77.2603 
 428   0.0000       2.842886        77.3589 
 429   0.0000       2.853208        77.6397 
 430   0.0000       2.863591        77.9223 
 431   0.0000       2.871858        78.1472 
 432   0.0000       2.879071        78.3435 
 433   0.0000       2.888844        78.6094 
 434   0.0000       2.893593        78.7387 
 435   0.0000       2.901566        78.9556 
 436   0.0000       2.904495        79.0353 
 437   0.0000       2.908125        79.1341 
 438   0.0000       2.914011        79.2943 
 439   0.0000       2.919007        79.4302 
 440   0.0000       2.928414        79.6862 
 441   0.0000       2.932890        79.8080 
 442   0.0000       2.943554        80.0982 
 443   0.0000       2.947188        80.1971 
 444   0.0000       2.960062        80.5474 
 445   0.0000       2.973461        80.9120 
 446   0.0000       2.979338        81.0719 
 447   0.0000       2.990869        81.3857 
 448   0.0000       3.000154        81.6383 
 449   0.0000       3.010645        81.9238 
 450   0.0000       3.020899        82.2028 
 451   0.0000       3.032215        82.5108 
 452   0.0000       3.036198        82.6191 
 453   0.0000       3.057737        83.2052 
 454   0.0000       3.061848        83.3171 
 455   0.0000       3.070213        83.5447 
 456   0.0000       3.076487        83.7155 
 457   0.0000       3.077721        83.7491 
 458   0.0000       3.087923        84.0266 
 459   0.0000       3.094384        84.2025 
 460   0.0000       3.096931        84.2718 
 461   0.0000       3.114448        84.7484 
 462   0.0000       3.118620        84.8620 
 463   0.0000       3.121788        84.9482 
 464   0.0000       3.128872        85.1409 
 465   0.0000       3.152164        85.7747 
 466   0.0000       3.159659        85.9787 
 467   0.0000       3.170510        86.2740 
 468   0.0000       3.176350        86.4329 
 469   0.0000       3.196781        86.9888 
 470   0.0000       3.202695        87.1498 
 471   0.0000       3.222178        87.6799 
 472   0.0000       3.227213        87.8169 
 473   0.0000       3.239476        88.1506 
 474   0.0000       3.246701        88.3472 
 475   0.0000       3.258849        88.6778 
 476   0.0000       3.271317        89.0171 
 477   0.0000       3.280202        89.2588 
 478   0.0000       3.287578        89.4596 
 479   0.0000       3.291211        89.5584 
 480   0.0000       3.310774        90.0907 
 481   0.0000       3.315489        90.2191 
 482   0.0000       3.327214        90.5381 
 483   0.0000       3.342386        90.9510 
 484   0.0000       3.345389        91.0327 
 485   0.0000       3.364660        91.5571 
 486   0.0000       3.371520        91.7437 
 487   0.0000       3.374709        91.8305 
 488   0.0000       3.381516        92.0157 
 489   0.0000       3.400519        92.5328 
 490   0.0000       3.413487        92.8857 
 491   0.0000       3.426977        93.2528 
 492   0.0000       3.431514        93.3762 
 493   0.0000       3.442645        93.6791 
 494   0.0000       3.448042        93.8260 
 495   0.0000       3.461400        94.1895 
 496   0.0000       3.463217        94.2389 
 497   0.0000       3.464671        94.2785 
 498   0.0000       3.488389        94.9239 
 499   0.0000       3.489775        94.9616 
 500   0.0000       3.505259        95.3829 
 501   0.0000       3.511996        95.5663 
 502   0.0000       3.521366        95.8213 
 503   0.0000       3.533958        96.1639 
 504   0.0000       3.536903        96.2440 
 505   0.0000       3.551422        96.6391 
 506   0.0000       3.552081        96.6570 
 507   0.0000       3.561858        96.9231 
 508   0.0000       3.565847        97.0316 
 509   0.0000       3.569678        97.1359 
 510   0.0000       3.590708        97.7081 
 511   0.0000       3.596359        97.8619 
 512   0.0000       3.602791        98.0369 
 513   0.0000       3.608099        98.1814 
 514   0.0000       3.625886        98.6654 
 515   0.0000       3.634629        98.9033 
 516   0.0000       3.642631        99.1210 
 517   0.0000       3.653904        99.4278 
 518   0.0000       3.666853        99.7801 
 519   0.0000       3.681074       100.1671 
 520   0.0000       3.694797       100.5405 
 521   0.0000       3.710862       100.9777 
 522   0.0000       3.715955       101.1163 
 523   0.0000       3.743508       101.8660 
 524   0.0000       3.749096       102.0181 
 525   0.0000       3.761493       102.3554 
 526   0.0000       3.762311       102.3777 
 527   0.0000       3.770972       102.6134 
 528   0.0000       3.778097       102.8073 
 529   0.0000       3.794810       103.2620 
 530   0.0000       3.810347       103.6848 
 531   0.0000       3.817812       103.8880 
 532   0.0000       3.823929       104.0544 
 533   0.0000       3.834333       104.3375 
 534   0.0000       3.846875       104.6788 
 535   0.0000       3.860096       105.0386 
 536   0.0000       3.872291       105.3704 
 537   0.0000       3.880654       105.5980 
 538   0.0000       3.887175       105.7754 
 539   0.0000       3.902922       106.2039 
 540   0.0000       3.916744       106.5800 
 541   0.0000       3.929218       106.9195 
 542   0.0000       3.930045       106.9420 
 543   0.0000       3.950956       107.5110 
 544   0.0000       3.957705       107.6946 
 545   0.0000       3.966719       107.9399 
 546   0.0000       3.975224       108.1713 
 547   0.0000       3.997048       108.7652 
 548   0.0000       4.005491       108.9949 
 549   0.0000       4.021837       109.4398 
 550   0.0000       4.031837       109.7119 
 551   0.0000       4.047820       110.1468 
 552   0.0000       4.054303       110.3232 
 553   0.0000       4.067962       110.6949 
 554   0.0000       4.092706       111.3682 
 555   0.0000       4.100019       111.5672 
 556   0.0000       4.119558       112.0989 
 557   0.0000       4.121535       112.1527 
 558   0.0000       4.130769       112.4039 
 559   0.0000       4.143724       112.7565 
 560   0.0000       4.158052       113.1463 
 561   0.0000       4.163575       113.2966 
 562   0.0000       4.171410       113.5098 
 563   0.0000       4.184579       113.8682 
 564   0.0000       4.194217       114.1304 
 565   0.0000       4.206922       114.4762 
 566   0.0000       4.207884       114.5023 
 567   0.0000       4.216015       114.7236 
 568   0.0000       4.224280       114.9485 
 569   0.0000       4.227629       115.0396 
 570   0.0000       4.236042       115.2686 
 571   0.0000       4.236790       115.2889 
 572   0.0000       4.257149       115.8429 
 573   0.0000       4.272148       116.2510 
 574   0.0000       4.272403       116.2580 
 575   0.0000       4.276865       116.3794 
 576   0.0000       4.284159       116.5779 
 577   0.0000       4.296059       116.9017 
 578   0.0000       4.317144       117.4755 
 579   0.0000       4.331074       117.8545 
 580   0.0000       4.345701       118.2525 
 581   0.0000       4.349547       118.3572 
 582   0.0000       4.355259       118.5126 
 583   0.0000       4.365380       118.7880 
 584   0.0000       4.368829       118.8819 
 585   0.0000       4.370190       118.9189 
 586   0.0000       4.376981       119.1037 
 587   0.0000       4.391315       119.4937 
 588   0.0000       4.396849       119.6443 
 589   0.0000       4.417985       120.2195 
 590   0.0000       4.435494       120.6959 
 591   0.0000       4.438802       120.7859 
 592   0.0000       4.454618       121.2163 
 593   0.0000       4.457736       121.3012 
 594   0.0000       4.475954       121.7969 
 595   0.0000       4.480059       121.9086 
 596   0.0000       4.483619       122.0055 
 597   0.0000       4.505205       122.5929 
 598   0.0000       4.514828       122.8547 
 599   0.0000       4.551956       123.8650 
 600   0.0000       4.586475       124.8043 
 601   0.0000       4.634360       126.1074 
 602   0.0000       4.643459       126.3549 
 603   0.0000       4.662411       126.8706 
 604   0.0000       4.671304       127.1126 
 605   0.0000       4.683538       127.4456 
 606   0.0000       4.699443       127.8783 
 607   0.0000       4.707919       128.1090 
 608   0.0000       4.723743       128.5396 
 609   0.0000       4.731396       128.7478 
 610   0.0000       4.749987       129.2537 
 611   0.0000       4.769768       129.7920 
 612   0.0000       4.782622       130.1418 
 613   0.0000       4.786715       130.2531 
 614   0.0000       4.797021       130.5336 
 615   0.0000       4.802654       130.6869 
 616   0.0000       4.822165       131.2178 
 617   0.0000       4.840116       131.7062 
 618   0.0000       4.884283       132.9081 
 619   0.0000       4.888205       133.0148 
 620   0.0000       4.906124       133.5024 
 621   0.0000       4.907904       133.5509 
 622   0.0000       4.925371       134.0262 
 623   0.0000       4.937210       134.3483 
 624   0.0000       4.942243       134.4853 
 625   0.0000       4.990295       135.7928 
 626   0.0000       4.990516       135.7988 
 627   0.0000       5.015189       136.4702 
 628   0.0000       5.028595       136.8350 
 629   0.0000       5.037676       137.0821 
 630   0.0000       5.041015       137.1730 
 631   0.0000       5.060374       137.6998 
 632   0.0000       5.066244       137.8595 
 633   0.0000       5.077706       138.1714 
 634   0.0000       5.086826       138.4196 
 635   0.0000       5.103408       138.8708 
 636   0.0000       5.120901       139.3468 
 637   0.0000       5.126183       139.4905 
 638   0.0000       5.136196       139.7630 
 639   0.0000       5.148610       140.1008 
 640   0.0000       5.184987       141.0907 
 641   0.0000       5.218227       141.9952 
 642   0.0000       5.232114       142.3731 
 643   0.0000       5.236278       142.4864 
 644   0.0000       5.247406       142.7892 
 645   0.0000       5.259673       143.1230 
 646   0.0000       5.293500       144.0435 
 647   0.0000       5.319297       144.7454 
 648   0.0000       5.347120       145.5025 
 649   0.0000       5.359262       145.8329 
 650   0.0000       5.378528       146.3572 
 651   0.0000       5.385492       146.5467 
 652   0.0000       5.395022       146.8060 
 653   0.0000       5.405330       147.0865 
 654   0.0000       5.409792       147.2079 
 655   0.0000       5.425554       147.6368 
 656   0.0000       5.437093       147.9508 
 657   0.0000       5.443976       148.1381 
 658   0.0000       5.449742       148.2950 
 659   0.0000       5.455202       148.4436 
 660   0.0000       5.467036       148.7656 
 661   0.0000       5.485951       149.2803 
 662   0.0000       5.503567       149.7597 
 663   0.0000       5.516619       150.1148 
 664   0.0000       5.525065       150.3447 
 665   0.0000       5.526933       150.3955 
 666   0.0000       5.542060       150.8071 
 667   0.0000       5.559601       151.2844 
 668   0.0000       5.567615       151.5025 
 669   0.0000       5.585280       151.9832 
 670   0.0000       5.598254       152.3362 
 671   0.0000       5.607325       152.5831 
 672   0.0000       5.624382       153.0472 
 673   0.0000       5.638549       153.4327 
 674   0.0000       5.700013       155.1052 
 675   0.0000       5.716521       155.5544 
 676   0.0000       5.723591       155.7468 
 677   0.0000       5.735346       156.0667 
 678   0.0000       5.757202       156.6614 
 679   0.0000       5.765992       156.9006 
 680   0.0000       5.772978       157.0907 
 681   0.0000       5.775974       157.1722 
 682   0.0000       5.781367       157.3190 
 683   0.0000       5.816848       158.2845 
 684   0.0000       5.822645       158.4422 
 685   0.0000       5.834794       158.7728 
 686   0.0000       5.842000       158.9689 
 687   0.0000       5.850626       159.2036 
 688   0.0000       5.880963       160.0292 
 689   0.0000       5.906913       160.7353 
 690   0.0000       6.003455       163.3623 
 691   0.0000       6.055640       164.7823 
 692   0.0000       6.084975       165.5806 
 693   0.0000       6.164597       167.7472 
 694   0.0000       6.197151       168.6331 
 695   0.0000       6.252034       170.1265 
 696   0.0000       6.348681       172.7564 
 697   0.0000       6.467078       175.9781 
 698   0.0000       6.524830       177.5496 
 699   0.0000       6.623217       180.2269 
 700   0.0000       6.666486       181.4043 
 701   0.0000       6.736896       183.3202 
 702   0.0000       6.816890       185.4970 
 703   0.0000       6.987441       190.1379 
 704   0.0000       7.055980       192.0030 
 705   0.0000       7.265690       197.7095 
 706   0.0000       7.362798       200.3519 
 707   0.0000       7.454320       202.8423 
 708   0.0000       7.584349       206.3806 
 709   0.0000      23.270036       633.2099 
 710   0.0000      23.324308       634.6867 
 711   0.0000      23.530049       640.2852 
 712   0.0000      23.620286       642.7407 
 713   0.0000      23.637164       643.1999 
 714   0.0000      23.680005       644.3657 
 715   0.0000      23.763644       646.6416 
 716   0.0000      25.500258       693.8973 
 717   0.0000      33.191930       903.1983 
 718   0.0000      44.356694      1207.0070 
 719   0.0000      44.469571      1210.0785 
 720   0.0000      85.941328      2338.5824 

                    ********************************
                    * MULLIKEN POPULATION ANALYSIS *
                    ********************************

-----------------------
MULLIKEN ATOMIC CHARGES
-----------------------
   0 Mo:    0.804769
   1 C :    0.147056
   2 C :   -0.078048
   3 H :    0.073518
   4 H :    0.058686
   5 H :    0.104052
   6 C :   -0.050508
   7 C :   -0.000661
   8 N :   -0.834762
   9 O :   -0.706644
  10 O :   -0.583662
  11 H :    0.066629
  12 H :    0.056359
  13 H :    0.083513
  14 H :    0.054842
  15 H :    0.031675
  16 H :    0.071782
  17 C :    0.209290
  18 C :    0.139415
  19 H :    0.100039
  20 H :    0.077701
  21 H :    0.133717
  22 H :    0.111909
  23 C :   -0.546360
  24 H :    0.080181
  25 H :    0.047823
  26 H :    0.094725
  27 H :    0.252965
Sum of atomic charges:   -0.0000000

--------------------------------
MULLIKEN REDUCED ORBITAL CHARGES
--------------------------------
  0 Mos       :     2.658126  s :     2.658126
      pz      :     2.288730  p :     6.308122
      px      :     2.071143
      py      :     1.948248
      dz2     :     0.815296  d :     4.039790
      dxz     :     0.918672
      dyz     :     0.807304
      dx2y2   :     0.725819
      dxy     :     0.772699
      f0      :     0.024549  f :     0.178182
      f+1     :     0.018153
      f-1     :     0.020372
      f+2     :     0.018671
      f-2     :     0.022425
      f+3     :     0.030244
      f-3     :     0.043768
      g0      :     0.001219  g :     0.011011
      g+1     :     0.000901
      g-1     :     0.001144
      g+2     :     0.000860
      g-2     :     0.000799
      g+3     :     0.001230
      g-3     :     0.000850
      g+4     :     0.002307
      g-4     :     0.001700
  1 C s       :     3.188608  s :     3.188608
      pz      :     0.866317  p :     2.638338
      px      :     0.836494
      py      :     0.935527
      dz2     :    -0.034040  d :     0.019114
      dxz     :     0.011320
      dyz     :     0.025239
      dx2y2   :     0.012974
      dxy     :     0.003621
      f0      :     0.001000  f :     0.006884
      f+1     :     0.001562
      f-1     :     0.001465
      f+2     :     0.000625
      f-2     :     0.000886
      f+3     :     0.000777
      f-3     :     0.000570
  2 C s       :     3.219471  s :     3.219471
      pz      :     0.991160  p :     2.767377
      px      :     0.973218
      py      :     0.802999
      dz2     :     0.007508  d :     0.084643
      dxz     :     0.025855
      dyz     :     0.027056
      dx2y2   :     0.012125
      dxy     :     0.012098
      f0      :     0.000539  f :     0.006557
      f+1     :     0.000436
      f-1     :     0.001272
      f+2     :     0.001100
      f-2     :     0.000811
      f+3     :     0.001161
      f-3     :     0.001239
  3 H s       :     0.892931  s :     0.892931
      pz      :     0.017396  p :     0.032026
      px      :     0.001016
      py      :     0.013615
      dz2     :     0.000476  d :     0.001525
      dxz     :     0.000309
      dyz     :     0.000187
      dx2y2   :     0.000279
      dxy     :     0.000273
  4 H s       :     0.890235  s :     0.890235
      pz      :     0.004049  p :     0.049503
      px      :     0.027127
      py      :     0.018327
      dz2     :     0.000162  d :     0.001577
      dxz     :     0.000448
      dyz     :     0.000134
      dx2y2   :     0.000228
      dxy     :     0.000605
  5 H s       :     0.854995  s :     0.854995
      pz      :     0.011260  p :     0.039393
      px      :     0.016441
      py      :     0.011693
      dz2     :     0.000427  d :     0.001560
      dxz     :     0.000196
      dyz     :     0.000441
      dx2y2   :     0.000332
      dxy     :     0.000164
  6 C s       :     3.190900  s :     3.190900
      pz      :     0.964193  p :     2.698669
      px      :     0.784309
      py      :     0.950167
      dz2     :     0.046267  d :     0.150998
      dxz     :     0.026397
      dyz     :     0.017284
      dx2y2   :     0.008897
      dxy     :     0.052153
      f0      :     0.000735  f :     0.009941
      f+1     :     0.001974
      f-1     :     0.000716
      f+2     :     0.001397
      f-2     :     0.001531
      f+3     :     0.002178
      f-3     :     0.001411
  7 C s       :     3.182860  s :     3.182860
      pz      :     0.977973  p :     2.662739
      px      :     0.949587
      py      :     0.735179
      dz2     :     0.040505  d :     0.145241
      dxz     :     0.010983
      dyz     :     0.018795
      dx2y2   :     0.037135
      dxy     :     0.037823
      f0      :     0.001296  f :     0.009821
      f+1     :     0.000579
      f-1     :     0.001151
      f+2     :     0.001105
      f-2     :     0.001378
      f+3     :     0.001787
      f-3     :     0.002526
  8 N s       :     4.210555  s :     4.210555
      pz      :     1.334771  p :     3.630763
      px      :     1.251923
      py      :     1.044068
      dz2     :    -0.000704  d :    -0.011249
      dxz     :     0.003577
      dyz     :     0.013049
      dx2y2   :    -0.025283
      dxy     :    -0.001889
      f0      :     0.000465  f :     0.004693
      f+1     :     0.000172
      f-1     :     0.000687
      f+2     :     0.000553
      f-2     :     0.000594
      f+3     :     0.001080
      f-3     :     0.001143
  9 O s       :     3.913860  s :     3.913860
      pz      :     1.748170  p :     4.750791
      px      :     1.580870
      py      :     1.421751
      dz2     :     0.005615  d :     0.040535
      dxz     :     0.010572
      dyz     :     0.009036
      dx2y2   :     0.017856
      dxy     :    -0.002544
      f0      :     0.000156  f :     0.001458
      f+1     :     0.000141
      f-1     :     0.000184
      f+2     :     0.000107
      f-2     :     0.000177
      f+3     :     0.000387
      f-3     :     0.000306
 10 O s       :     3.894426  s :     3.894426
      pz      :     1.668834  p :     4.667043
      px      :     1.432594
      py      :     1.565615
      dz2     :     0.009313  d :     0.020702
      dxz     :     0.003533
      dyz     :     0.010611
      dx2y2   :     0.006154
      dxy     :    -0.008909
      f0      :     0.000169  f :     0.001491
      f+1     :     0.000192
      f-1     :     0.000115
      f+2     :     0.000199
      f-2     :     0.000270
      f+3     :     0.000234
      f-3     :     0.000313
 11 H s       :     0.884283  s :     0.884283
      pz      :     0.026174  p :     0.047578
      px      :     0.013408
      py      :     0.007995
      dz2     :     0.000347  d :     0.001510
      dxz     :     0.000520
      dyz     :     0.000424
      dx2y2   :     0.000052
      dxy     :     0.000167
 12 H s       :     0.898891  s :     0.898891
      pz      :     0.013896  p :     0.043235
      px      :     0.013052
      py      :     0.016287
      dz2     :     0.000431  d :     0.001515
      dxz     :     0.000166
      dyz     :     0.000205
      dx2y2   :     0.000279
      dxy     :     0.000434
 13 H s       :     0.847474  s :     0.847474
      pz      :     0.006528  p :     0.067353
      px      :     0.021421
      py      :     0.039405
      dz2     :     0.000048  d :     0.001659
      dxz     :     0.000319
      dyz     :     0.000324
      dx2y2   :     0.000730
      dxy     :     0.000240
 14 H s       :     0.900024  s :     0.900024
      pz      :     0.009211  p :     0.043637
      px      :     0.020025
      py      :     0.014401
      dz2     :     0.000441  d :     0.001497
      dxz     :     0.000196
      dyz     :     0.000134
      dx2y2   :     0.000183
      dxy     :     0.000542
 15 H s       :     0.907040  s :     0.907040
      pz      :     0.026255  p :     0.059796
      px      :     0.018585
      py      :     0.014956
      dz2     :     0.000269  d :     0.001489
      dxz     :     0.000493
      dyz     :     0.000578
      dx2y2   :     0.000030
      dxy     :     0.000119
 16 H s       :     0.877815  s :     0.877815
      pz      :     0.001711  p :     0.048855
      px      :     0.025650
      py      :     0.021494
      dz2     :     0.000145  d :     0.001548
      dxz     :     0.000224
      dyz     :     0.000273
      dx2y2   :     0.000677
      dxy     :     0.000229
 17 C s       :     3.004479  s :     3.004479
      pz      :     0.882414  p :     2.776060
      px      :     0.912543
      py      :     0.981103
      dz2     :    -0.000804  d :     0.005685
      dxz     :     0.010997
      dyz     :    -0.005590
      dx2y2   :     0.002792
      dxy     :    -0.001710
      f0      :     0.001281  f :     0.004485
      f+1     :     0.000934
      f-1     :     0.000884
      f+2     :     0.000291
      f-2     :     0.000645
      f+3     :     0.000389
      f-3     :     0.000062
 18 C s       :     3.051586  s :     3.051586
      pz      :     0.812126  p :     2.744604
      px      :     0.932535
      py      :     0.999943
      dz2     :    -0.000001  d :     0.059411
      dxz     :     0.039568
      dyz     :     0.009469
      dx2y2   :     0.004000
      dxy     :     0.006374
      f0      :     0.000946  f :     0.004985
      f+1     :     0.001296
      f-1     :     0.001127
      f+2     :     0.000373
      f-2     :     0.000732
      f+3     :     0.000365
      f-3     :     0.000146
 19 H s       :     0.826409  s :     0.826409
      pz      :     0.034745  p :     0.072027
      px      :     0.012534
      py      :     0.024748
      dz2     :     0.000391  d :     0.001525
      dxz     :     0.000196
      dyz     :     0.000407
      dx2y2   :     0.000267
      dxy     :     0.000265
 20 H s       :     0.847059  s :     0.847059
      pz      :     0.035037  p :     0.073827
      px      :     0.023124
      py      :     0.015666
      dz2     :     0.000545  d :     0.001413
      dxz     :     0.000238
      dyz     :     0.000214
      dx2y2   :     0.000231
      dxy     :     0.000185
 21 H s       :     0.795949  s :     0.795949
      pz      :     0.024233  p :     0.069007
      px      :     0.018523
      py      :     0.026252
      dz2     :     0.000220  d :     0.001327
      dxz     :     0.000159
      dyz     :     0.000371
      dx2y2   :     0.000256
      dxy     :     0.000320
 22 H s       :     0.835256  s :     0.835256
      pz      :     0.021904  p :     0.051382
      px      :     0.012789
      py      :     0.016689
      dz2     :     0.000529  d :     0.001453
      dxz     :     0.000231
      dyz     :     0.000188
      dx2y2   :     0.000280
      dxy     :     0.000225
 23 C s       :     3.393762  s :     3.393762
      pz      :     1.008196  p :     3.038305
      px      :     1.034543
      py      :     0.995566
      dz2     :     0.000782  d :     0.110181
      dxz     :     0.020952
      dyz     :     0.025269
      dx2y2   :     0.053046
      dxy     :     0.010131
      f0      :     0.000296  f :     0.004113
      f+1     :     0.000581
      f-1     :     0.000628
      f+2     :     0.000492
      f-2     :     0.000869
      f+3     :     0.000594
      f-3     :     0.000652
 24 H s       :     0.868341  s :     0.868341
      pz      :     0.022386  p :     0.050001
      px      :     0.022093
      py      :     0.005522
      dz2     :     0.000400  d :     0.001476
      dxz     :     0.000351
      dyz     :     0.000351
      dx2y2   :     0.000169
      dxy     :     0.000205
 25 H s       :     0.912179  s :     0.912179
      pz      :     0.006787  p :     0.038550
      px      :     0.012337
      py      :     0.019426
      dz2     :     0.000126  d :     0.001448
      dxz     :     0.000327
      dyz     :     0.000239
      dx2y2   :     0.000473
      dxy     :     0.000283
 26 H s       :     0.867149  s :     0.867149
      pz      :     0.018941  p :     0.036622
      px      :     0.010784
      py      :     0.006898
      dz2     :     0.000463  d :     0.001504
      dxz     :     0.000230
      dyz     :     0.000202
      dx2y2   :     0.000251
      dxy     :     0.000357
 27 H s       :     0.676504  s :     0.676504
      pz      :     0.025188  p :     0.068974
      px      :     0.024229
      py      :     0.019556
      dz2     :     0.000477  d :     0.001558
      dxz     :     0.000256
      dyz     :     0.000167
      dx2y2   :     0.000364
      dxy     :     0.000294


                     *******************************
                     * LOEWDIN POPULATION ANALYSIS *
                     *******************************

----------------------
LOEWDIN ATOMIC CHARGES
----------------------
   0 Mo:    1.100073
   1 C :   -0.195861
   2 C :    0.020680
   3 H :   -0.008646
   4 H :   -0.021042
   5 H :   -0.009853
   6 C :    0.009981
   7 C :   -0.011856
   8 N :   -0.102233
   9 O :   -0.317126
  10 O :   -0.304728
  11 H :   -0.007867
  12 H :   -0.006390
  13 H :   -0.024342
  14 H :   -0.008006
  15 H :   -0.009398
  16 H :   -0.026085
  17 C :    0.063406
  18 C :    0.063444
  19 H :   -0.092690
  20 H :   -0.098319
  21 H :   -0.022891
  22 H :   -0.015416
  23 C :    0.093469
  24 H :   -0.019147
  25 H :   -0.010886
  26 H :   -0.020415
  27 H :   -0.017855

-------------------------------
LOEWDIN REDUCED ORBITAL CHARGES
-------------------------------
  0 Mos       :     1.810910  s :     1.810910
      pz      :     2.071042  p :     6.269760
      px      :     2.100349
      py      :     2.098370
      dz2     :     0.954970  d :     4.310324
      dxz     :     0.897388
      dyz     :     0.828123
      dx2y2   :     0.802614
      dxy     :     0.827230
      f0      :     0.056961  f :     0.462314
      f+1     :     0.045095
      f-1     :     0.060553
      f+2     :     0.045430
      f-2     :     0.047603
      f+3     :     0.101261
      f-3     :     0.105411
      g0      :     0.005869  g :     0.046620
      g+1     :     0.004026
      g-1     :     0.005327
      g+2     :     0.003181
      g-2     :     0.003246
      g+3     :     0.004834
      g-3     :     0.003221
      g+4     :     0.008052
      g-4     :     0.008864
  1 C s       :     2.664909  s :     2.664909
      pz      :     0.943485  p :     2.642334
      px      :     0.830551
      py      :     0.868298
      dz2     :     0.193152  d :     0.848595
      dxz     :     0.192359
      dyz     :     0.209617
      dx2y2   :     0.127799
      dxy     :     0.125667
      f0      :     0.007219  f :     0.040023
      f+1     :     0.008456
      f-1     :     0.008496
      f+2     :     0.003848
      f-2     :     0.004570
      f+3     :     0.003930
      f-3     :     0.003504
  2 C s       :     2.663406  s :     2.663406
      pz      :     0.913019  p :     2.659473
      px      :     0.903953
      py      :     0.842501
      dz2     :     0.068784  d :     0.606942
      dxz     :     0.081218
      dyz     :     0.185697
      dx2y2   :     0.164510
      dxy     :     0.106733
      f0      :     0.005116  f :     0.049499
      f+1     :     0.004171
      f-1     :     0.009046
      f+2     :     0.007044
      f-2     :     0.006101
      f+3     :     0.009282
      f-3     :     0.008738
  3 H s       :     0.709753  s :     0.709753
      pz      :     0.104360  p :     0.271211
      px      :     0.073029
      py      :     0.093822
      dz2     :     0.006631  d :     0.027681
      dxz     :     0.004821
      dyz     :     0.008063
      dx2y2   :     0.004126
      dxy     :     0.004040
  4 H s       :     0.700849  s :     0.700849
      pz      :     0.083481  p :     0.292458
      px      :     0.134246
      py      :     0.074731
      dz2     :     0.003539  d :     0.027736
      dxz     :     0.008707
      dyz     :     0.001157
      dx2y2   :     0.007390
      dxy     :     0.006943
  5 H s       :     0.704562  s :     0.704562
      pz      :     0.111587  p :     0.277590
      px      :     0.096523
      py      :     0.069480
      dz2     :     0.007956  d :     0.027702
      dxz     :     0.006783
      dyz     :     0.005927
      dx2y2   :     0.003568
      dxy     :     0.003467
  6 C s       :     2.656410  s :     2.656410
      pz      :     0.890233  p :     2.582474
      px      :     0.796090
      py      :     0.896150
      dz2     :     0.139177  d :     0.683594
      dxz     :     0.122238
      dyz     :     0.110012
      dx2y2   :     0.132486
      dxy     :     0.179681
      f0      :     0.006066  f :     0.067541
      f+1     :     0.012519
      f-1     :     0.004803
      f+2     :     0.011356
      f-2     :     0.009517
      f+3     :     0.012925
      f-3     :     0.010355
  7 C s       :     2.663109  s :     2.663109
      pz      :     0.919640  p :     2.583835
      px      :     0.880583
      py      :     0.783613
      dz2     :     0.127206  d :     0.697720
      dxz     :     0.104113
      dyz     :     0.117731
      dx2y2   :     0.179515
      dxy     :     0.169155
      f0      :     0.008390  f :     0.067191
      f+1     :     0.003525
      f-1     :     0.008607
      f+2     :     0.009889
      f-2     :     0.008981
      f+3     :     0.013589
      f-3     :     0.014210
  8 N s       :     3.086038  s :     3.086038
      pz      :     1.144654  p :     3.364229
      px      :     1.090604
      py      :     1.128971
      dz2     :     0.087923  d :     0.637110
      dxz     :     0.049035
      dyz     :     0.149821
      dx2y2   :     0.172573
      dxy     :     0.177759
      f0      :     0.001121  f :     0.014856
      f+1     :     0.000608
      f-1     :     0.002907
      f+2     :     0.001489
      f-2     :     0.001515
      f+3     :     0.004770
      f-3     :     0.002446
  9 O s       :     3.332138  s :     3.332138
      pz      :     1.570094  p :     4.479750
      px      :     1.478111
      py      :     1.431546
      dz2     :     0.063013  d :     0.501095
      dxz     :     0.063371
      dyz     :     0.084848
      dx2y2   :     0.145703
      dxy     :     0.144161
      f0      :     0.000362  f :     0.004143
      f+1     :     0.000341
      f-1     :     0.000518
      f+2     :     0.000424
      f-2     :     0.000481
      f+3     :     0.000947
      f-3     :     0.001070
 10 O s       :     3.320472  s :     3.320472
      pz      :     1.527113  p :     4.485189
      px      :     1.448780
      py      :     1.509297
      dz2     :     0.080915  d :     0.495014
      dxz     :     0.087325
      dyz     :     0.066151
      dx2y2   :     0.130708
      dxy     :     0.129915
      f0      :     0.000347  f :     0.004053
      f+1     :     0.000626
      f-1     :     0.000242
      f+2     :     0.000573
      f-2     :     0.000657
      f+3     :     0.000805
      f-3     :     0.000803
 11 H s       :     0.716708  s :     0.716708
      pz      :     0.127112  p :     0.264132
      px      :     0.057414
      py      :     0.079606
      dz2     :     0.009827  d :     0.027027
      dxz     :     0.006073
      dyz     :     0.008374
      dx2y2   :     0.001114
      dxy     :     0.001638
 12 H s       :     0.714731  s :     0.714731
      pz      :     0.089514  p :     0.264467
      px      :     0.067362
      py      :     0.107591
      dz2     :     0.005326  d :     0.027191
      dxz     :     0.003676
      dyz     :     0.006638
      dx2y2   :     0.005712
      dxy     :     0.005840
 13 H s       :     0.693452  s :     0.693452
      pz      :     0.074764  p :     0.303122
      px      :     0.095704
      py      :     0.132654
      dz2     :     0.002704  d :     0.027768
      dxz     :     0.004259
      dyz     :     0.004669
      dx2y2   :     0.007521
      dxy     :     0.008615
 14 H s       :     0.715574  s :     0.715574
      pz      :     0.094328  p :     0.265211
      px      :     0.115474
      py      :     0.055408
      dz2     :     0.005970  d :     0.027221
      dxz     :     0.007812
      dyz     :     0.002168
      dx2y2   :     0.005681
      dxy     :     0.005590
 15 H s       :     0.714942  s :     0.714942
      pz      :     0.136721  p :     0.267444
      px      :     0.075387
      py      :     0.055336
      dz2     :     0.010034  d :     0.027012
      dxz     :     0.008882
      dyz     :     0.006779
      dx2y2   :     0.000517
      dxy     :     0.000799
 16 H s       :     0.707220  s :     0.707220
      pz      :     0.080347  p :     0.291675
      px      :     0.109952
      py      :     0.101376
      dz2     :     0.003352  d :     0.027191
      dxz     :     0.003420
      dyz     :     0.005286
      dx2y2   :     0.007452
      dxy     :     0.007680
 17 C s       :     2.811258  s :     2.811258
      pz      :     0.978678  p :     2.665045
      px      :     0.770238
      py      :     0.916128
      dz2     :     0.109752  d :     0.438748
      dxz     :     0.093204
      dyz     :     0.132187
      dx2y2   :     0.042794
      dxy     :     0.060811
      f0      :     0.007972  f :     0.021544
      f+1     :     0.003452
      f-1     :     0.003580
      f+2     :     0.001240
      f-2     :     0.003072
      f+3     :     0.001505
      f-3     :     0.000723
 18 C s       :     2.678443  s :     2.678443
      pz      :     0.946887  p :     2.589488
      px      :     0.783890
      py      :     0.858711
      dz2     :     0.143808  d :     0.638877
      dxz     :     0.184942
      dyz     :     0.167401
      dx2y2   :     0.061139
      dxy     :     0.081587
      f0      :     0.007379  f :     0.029748
      f+1     :     0.006531
      f-1     :     0.007072
      f+2     :     0.001911
      f-2     :     0.003999
      f+3     :     0.001482
      f-3     :     0.001375
 19 H s       :     0.738585  s :     0.738585
      pz      :     0.106821  p :     0.325405
      px      :     0.090130
      py      :     0.128454
      dz2     :     0.004889  d :     0.028700
      dxz     :     0.003015
      dyz     :     0.008372
      dx2y2   :     0.005888
      dxy     :     0.006536
 20 H s       :     0.748017  s :     0.748017
      pz      :     0.117161  p :     0.321701
      px      :     0.095599
      py      :     0.108941
      dz2     :     0.006803  d :     0.028602
      dxz     :     0.005415
      dyz     :     0.006681
      dx2y2   :     0.004704
      dxy     :     0.004999
 21 H s       :     0.698203  s :     0.698203
      pz      :     0.079331  p :     0.295920
      px      :     0.093576
      py      :     0.123013
      dz2     :     0.004108  d :     0.028768
      dxz     :     0.002159
      dyz     :     0.007614
      dx2y2   :     0.007419
      dxy     :     0.007467
 22 H s       :     0.699222  s :     0.699222
      pz      :     0.092681  p :     0.287885
      px      :     0.104575
      py      :     0.090629
      dz2     :     0.006630  d :     0.028309
      dxz     :     0.006870
      dyz     :     0.004661
      dx2y2   :     0.004823
      dxy     :     0.005325
 23 C s       :     2.645295  s :     2.645295
      pz      :     0.905654  p :     2.696124
      px      :     0.891531
      py      :     0.898939
      dz2     :     0.082048  d :     0.533127
      dxz     :     0.090085
      dyz     :     0.124253
      dx2y2   :     0.095582
      dxy     :     0.141159
      f0      :     0.003564  f :     0.031985
      f+1     :     0.004775
      f-1     :     0.004736
      f+2     :     0.003775
      f-2     :     0.004961
      f+3     :     0.004618
      f-3     :     0.005556
 24 H s       :     0.705990  s :     0.705990
      pz      :     0.112772  p :     0.284869
      px      :     0.082141
      py      :     0.089956
      dz2     :     0.008619  d :     0.028288
      dxz     :     0.006272
      dyz     :     0.007482
      dx2y2   :     0.002699
      dxy     :     0.003216
 25 H s       :     0.704868  s :     0.704868
      pz      :     0.078822  p :     0.278042
      px      :     0.108669
      py      :     0.090551
      dz2     :     0.003193  d :     0.027976
      dxz     :     0.006127
      dyz     :     0.003635
      dx2y2   :     0.007849
      dxy     :     0.007172
 26 H s       :     0.695060  s :     0.695060
      pz      :     0.104320  p :     0.296778
      px      :     0.084051
      py      :     0.108407
      dz2     :     0.006597  d :     0.028576
      dxz     :     0.004757
      dyz     :     0.007046
      dx2y2   :     0.004730
      dxy     :     0.005447
 27 H s       :     0.681980  s :     0.681980
      pz      :     0.090354  p :     0.305332
      px      :     0.105512
      py      :     0.109466
      dz2     :     0.006406  d :     0.030543
      dxz     :     0.004823
      dyz     :     0.007655
      dx2y2   :     0.006112
      dxy     :     0.005547


                      *****************************
                      * MAYER POPULATION ANALYSIS *
                      *****************************

  NA   - Mulliken gross atomic population
  ZA   - Total nuclear charge
  QA   - Mulliken gross atomic charge
  VA   - Mayer's total valence
  BVA  - Mayer's bonded valence
  FA   - Mayer's free valence

  ATOM       NA         ZA         QA         VA         BVA        FA
  0 Mo    13.1952    14.0000     0.8048     6.0093     6.0093    -0.0000
  1 C      5.8529     6.0000     0.1471     3.3921     3.3921    -0.0000
  2 C      6.0780     6.0000    -0.0780     3.7328     3.7328    -0.0000
  3 H      0.9265     1.0000     0.0735     1.0011     1.0011    -0.0000
  4 H      0.9413     1.0000     0.0587     1.0709     1.0709     0.0000
  5 H      0.8959     1.0000     0.1041     1.0069     1.0069    -0.0000
  6 C      6.0505     6.0000    -0.0505     3.9495     3.9495    -0.0000
  7 C      6.0007     6.0000    -0.0007     3.9363     3.9363     0.0000
  8 N      7.8348     7.0000    -0.8348     2.0243     2.0243     0.0000
  9 O      8.7066     8.0000    -0.7066     1.8609     1.8609    -0.0000
 10 O      8.5837     8.0000    -0.5837     1.7322     1.7322     0.0000
 11 H      0.9334     1.0000     0.0666     1.0735     1.0735    -0.0000
 12 H      0.9436     1.0000     0.0564     1.0523     1.0523    -0.0000
 13 H      0.9165     1.0000     0.0835     1.0975     1.0975    -0.0000
 14 H      0.9452     1.0000     0.0548     1.0676     1.0676     0.0000
 15 H      0.9683     1.0000     0.0317     1.1102     1.1102     0.0000
 16 H      0.9282     1.0000     0.0718     1.0696     1.0696    -0.0000
 17 C      5.7907     6.0000     0.2093     3.7795     3.7795    -0.0000
 18 C      5.8606     6.0000     0.1394     3.4812     3.4812    -0.0000
 19 H      0.9000     1.0000     0.1000     1.0922     1.0922    -0.0000
 20 H      0.9223     1.0000     0.0777     1.1057     1.1057    -0.0000
 21 H      0.8663     1.0000     0.1337     1.0770     1.0770    -0.0000
 22 H      0.8881     1.0000     0.1119     1.0210     1.0210    -0.0000
 23 C      6.5464     6.0000    -0.5464     4.3473     4.3473     0.0000
 24 H      0.9198     1.0000     0.0802     1.0242     1.0242     0.0000
 25 H      0.9522     1.0000     0.0478     1.0234     1.0234     0.0000
 26 H      0.9053     1.0000     0.0947     0.9823     0.9823     0.0000
 27 H      0.7470     1.0000     0.2530     0.9304     0.9304    -0.0000

  Mayer bond orders larger than 0.100000
B(  0-Mo,  1-C ) :   0.7053 B(  0-Mo,  2-C ) :   0.1400 B(  0-Mo,  8-N ) :   1.2486 
B(  0-Mo,  9-O ) :   0.6995 B(  0-Mo, 10-O ) :   0.7900 B(  0-Mo, 17-C ) :   1.5689 
B(  0-Mo, 18-C ) :   0.3265 B(  0-Mo, 23-C ) :   0.1557 B(  1-C , 18-C ) :   0.9195 
B(  1-C , 23-C ) :   1.1478 B(  1-C , 27-H ) :   0.8946 B(  2-C ,  3-H ) :   0.9702 
B(  2-C ,  4-H ) :   0.9994 B(  2-C ,  5-H ) :   0.9673 B(  2-C ,  8-N ) :   0.6585 
B(  6-C , 10-O ) :   0.9446 B(  6-C , 11-H ) :   0.9893 B(  6-C , 12-H ) :   0.9848 
B(  6-C , 13-H ) :   0.9901 B(  7-C ,  9-O ) :   0.9525 B(  7-C , 14-H ) :   0.9880 
B(  7-C , 15-H ) :   0.9880 B(  7-C , 16-H ) :   0.9842 B( 17-C , 18-C ) :   0.2648 
B( 17-C , 19-H ) :   1.0149 B( 17-C , 20-H ) :   1.0201 B( 18-C , 21-H ) :   1.0422 
B( 18-C , 22-H ) :   1.0585 B( 23-C , 24-H ) :   0.9712 B( 23-C , 25-H ) :   1.0124 
B( 23-C , 26-H ) :   0.9704 

-------
TIMINGS
-------

Total SCF time: 0 days 0 hours 0 min 20 sec 

Total time                  ....      20.064 sec
Sum of individual times     ....      19.341 sec  ( 96.4%)

Fock matrix formation       ....      13.220 sec  ( 65.9%)
  Split-RI-J                ....       4.360 sec  ( 33.0% of F)
  XC integration            ....       8.380 sec  ( 63.4% of F)
    Basis function eval.    ....       0.821 sec  (  9.8% of XC)
    Density eval.           ....       2.658 sec  ( 31.7% of XC)
    XC-Functional eval.     ....       0.115 sec  (  1.4% of XC)
    XC-Potential eval.      ....       3.811 sec  ( 45.5% of XC)
Diagonalization             ....       1.985 sec  (  9.9%)
Density matrix formation    ....       0.085 sec  (  0.4%)
Population analysis         ....       0.107 sec  (  0.5%)
Initial guess               ....       2.278 sec  ( 11.4%)
Orbital Transformation      ....       0.000 sec  (  0.0%)
Orbital Orthonormalization  ....       0.000 sec  (  0.0%)
DIIS solution               ....       1.091 sec  (  5.4%)
Grid generation             ....       0.575 sec  (  2.9%)


-------------------------------------------------------------------------------
                          DFT DISPERSION CORRECTION                            
                                                                               
                              DFTD3 V3.1  Rev 1                                
                          USING Becke-Johnson damping                          
-------------------------------------------------------------------------------
The TPSS functional is recognized
Active option DFTDOPT                   ...         4   

molecular C6(AA) [au] = 8613.388424 


            DFT-D V3
 parameters
 s6 scaling factor         :     1.0000 
 a1 scaling factor         :     0.4535 
 s8 scaling factor         :     1.9435 
 a2 scaling factor         :     4.4752 
 ad hoc parameters k1-k3   :    16.0000     1.3333    -4.0000 

 Edisp/kcal,au: -25.428792110746  -0.040523355342 
 E6   /kcal   : -12.021314750 
 E8   /kcal   : -13.407477361 
 % E8         :  52.725576987 

-------------------------   ----------------
Dispersion correction           -0.040523355
-------------------------   ----------------


-------------------------   --------------------
FINAL SINGLE POINT ENERGY      -550.744386075530
-------------------------   --------------------


                            ***************************************
                            *     ORCA property calculations      *
                            ***************************************

                                    ---------------------
                                    Active property flags
                                    ---------------------
   (+) Dipole Moment


------------------------------------------------------------------------------
                       ORCA ELECTRIC PROPERTIES CALCULATION
------------------------------------------------------------------------------

Dipole Moment Calculation                       ... on
Quadrupole Moment Calculation                   ... off
Polarizability Calculation                      ... off
GBWName                                         ... TMB09_T1.gbw
Electron density file                           ... TMB09_T1.scfp
The origin for moment calculation is the CENTER OF MASS  = ( 0.043409, -0.024360  0.032073)

-------------
DIPOLE MOMENT
-------------
                                X             Y             Z
Electronic contribution:     10.88352      -2.92641      13.12497
Nuclear contribution   :    -11.80214       3.30573     -13.02417
                        -----------------------------------------
Total Dipole Moment    :     -0.91862       0.37932       0.10079
                        -----------------------------------------
Magnitude (a.u.)       :      0.99895
Magnitude (Debye)      :      2.53912



--------------------
Rotational spectrum 
--------------------
 
Rotational constants in cm-1:     0.031577     0.026703     0.018834 
Rotational constants in MHz :   946.666634   800.534327   564.625423 

 Dipole components along the rotational axes: 
x,y,z [a.u.] :     0.907711     0.406133     0.094935 
x,y,z [Debye]:     2.307217     1.032308     0.241306 

 

Timings for individual modules:

Sum of individual times         ...       23.763 sec (=   0.396 min)
GTO integral calculation        ...        3.356 sec (=   0.056 min)  14.1 %
SCF iterations                  ...       20.407 sec (=   0.340 min)  85.9 %
                             ****ORCA TERMINATED NORMALLY****
TOTAL RUN TIME: 0 days 0 hours 0 minutes 24 seconds 381 msec
