
                                 *****************
                                 * O   R   C   A *
                                 *****************

           --- An Ab Initio, DFT and Semiempirical electronic structure package ---

                  #######################################################
                  #                        -***-                        #
                  #          Department of theory and spectroscopy      #
                  #               Directorship: Frank Neese             #
                  #        Max Planck Institute fuer Kohlenforschung    #
                  #                Kaiser Wilhelm Platz 1               #
                  #                 D-45470 Muelheim/Ruhr               #
                  #                      Germany                        #
                  #                                                     #
                  #                  All rights reserved                #
                  #                        -***-                        #
                  #######################################################


                         Program Version 4.2.0 -  RELEASE  -


 With contributions from (in alphabetic order):
   Daniel Aravena         : Magnetic Suceptibility
   Michael Atanasov       : Ab Initio Ligand Field Theory (pilot matlab implementation)
   Alexander A. Auer      : GIAO ZORA, VPT2
   Ute Becker             : Parallelization
   Giovanni Bistoni       : ED, misc. LED, open-shell LED, HFLED
   Martin Brehm           : Molecular dynamics
   Dmytro Bykov           : SCF Hessian
   Vijay G. Chilkuri      : MRCI spin determinant printing, contributions to CSF-ICE
   Dipayan Datta          : RHF DLPNO-CCSD density
   Achintya Kumar Dutta   : EOM-CC, STEOM-CC
   Dmitry Ganyushin       : Spin-Orbit,Spin-Spin,Magnetic field MRCI
   Miquel Garcia          : C-PCM Hessian, Gaussian charge scheme
   Yang Guo               : DLPNO-NEVPT2, CIM, IAO-localization
   Andreas Hansen         : Spin unrestricted coupled pair/coupled cluster methods
   Benjamin Helmich-Paris : CASSCF linear response (MC-RPA)
   Lee Huntington         : MR-EOM, pCC
   Robert Izsak           : Overlap fitted RIJCOSX, COSX-SCS-MP3, EOM
   Christian Kollmar      : KDIIS, OOCD, Brueckner-CCSD(T), CCSD density
   Simone Kossmann        : Meta GGA functionals, TD-DFT gradient, OOMP2, MP2 Hessian
   Martin Krupicka        : AUTO-CI
   Lucas Lang             : DCDCAS
   Dagmar Lenk            : GEPOL surface, SMD
   Dimitrios Liakos       : Extrapolation schemes; Compound Job, initial MDCI parallelization
   Dimitrios Manganas     : Further ROCIS development; embedding schemes
   Dimitrios Pantazis     : SARC Basis sets
   Taras Petrenko         : DFT Hessian,TD-DFT gradient, ASA, ECA, R-Raman, ABS, FL, XAS/XES, NRVS
   Peter Pinski           : DLPNO-MP2, DLPNO-MP2 Gradient
   Christoph Reimann      : Effective Core Potentials
   Marius Retegan         : Local ZFS, SOC
   Christoph Riplinger    : Optimizer, TS searches, QM/MM, DLPNO-CCSD(T), (RO)-DLPNO pert. Triples
   Tobias Risthaus        : Range-separated hybrids, TD-DFT gradient, RPA, STAB
   Michael Roemelt        : Original ROCIS implementation
   Masaaki Saitow         : Open-shell DLPNO-CCSD energy and density
   Barbara Sandhoefer     : DKH picture change effects
   Avijit Sen             : IP-ROCIS
   Kantharuban Sivalingam : CASSCF convergence, NEVPT2, FIC-MRCI
   Bernardo de Souza      : ESD, SOC TD-DFT
   Georgi Stoychev        : AutoAux, RI-MP2 NMR
   Willem Van den Heuvel  : Paramagnetic NMR
   Boris Wezisla          : Elementary symmetry handling
   Frank Wennmohs         : Technical directorship


 We gratefully acknowledge several colleagues who have allowed us to
 interface, adapt or use parts of their codes:
   Stefan Grimme, W. Hujo, H. Kruse,             : VdW corrections, initial TS optimization,
                  C. Bannwarth                     DFT functionals, gCP, sTDA/sTD-DF
   Ed Valeev, F. Pavosevic, A. Kumar             : LibInt (2-el integral package), F12 methods
   Garnet Chan, S. Sharma, J. Yang, R. Olivares  : DMRG
   Ulf Ekstrom                                   : XCFun DFT Library
   Mihaly Kallay                                 : mrcc  (arbitrary order and MRCC methods)
   Andreas Klamt, Michael Diedenhofen            : otool_cosmo (COSMO solvation model)
   Jiri Pittner, Ondrej Demel                    : Mk-CCSD
   Frank Weinhold                                : gennbo (NPA and NBO analysis)
   Christopher J. Cramer and Donald G. Truhlar   : smd solvation model
   Lars Goerigk                                  : TD-DFT with DH, B97 family of functionals
   V. Asgeirsson, H. Jonsson                     : NEB implementation
   FAccTs GmbH                                   : IRC, NEB, NEB-TS, Multilevel, MM, QM/MM, CI optimization
   S Lehtola, MJT Oliveira, MAL Marques          : LibXC Library


 Your calculation uses the libint2 library for the computation of 2-el integrals
 For citations please refer to: http://libint.valeyev.net

 Your ORCA version has been built with support for libXC version: 4.2.3
 For citations please refer to: https://tddft.org/programs/libxc/

 This ORCA versions uses:
   CBLAS   interface :  Fast vector & matrix operations
   LAPACKE interface :  Fast linear algebra routines
   SCALAPACK package :  Parallel linear algebra routines


Your calculation utilizes the atom-pairwise dispersion correction
with the Becke-Johnson damping scheme (D3BJ)
Cite in your paper:
S.Grimme, S.Ehrlich, L.Goerigk, J Comput Chem, (2011), 32, 1456–1465 
S.Grimme, J.Antony, S.Ehrlich and H.Krieg, J.Chem.Phys., 132, (2010), 154104 
   

----- Orbital basis set information -----
Your calculation utilizes the basis: def2-TZVPPD
   F. Weigend and R. Ahlrichs, Phys. Chem. Chem. Phys. 7, 3297 (2005).
   D. Rappoport and F. Furche, J. Chem. Phys. 133 134105 (2010).

----- AuxJ basis set information -----
Your calculation utilizes the auxiliary basis: def2/J
   F. Weigend, Phys. Chem. Chem. Phys. 8, 1057 (2006).

cite the ECPs for Zr [Def2-ECP] as follows:
Ce-Yb(ecp-28): M. Dolg, H. Stoll, H.Preuss, J. Chem. Phys., 1989, 90, 1730-1734.
Y-Cd(ecp-28), Hf-Hg(ecp-46): D. Andrae,U. Haeussermann, M. Dolg, H. Stoll, H. Preuss, Theor. Chim. Acta, 1990, 77, 123-141.
In-Sb(ecp-28), Tl-Bi(ecp-46): B. Metz, H. Stoll, M. Dolg, J. Chem. Phys., 2000, 113, 2563-2569.
Te-Xe(ecp-28), Po-Rn(ecp-46): K. A. Peterson, D. Figgen, E. Goll, H. Stoll, M. Dolg, J. Chem. Phys., 2003, 119, 11113-11123.
Rb(ecp-28), Cs(ecp-46): T. Leininger, A. Nicklass, W. Kuechle, H. Stoll, M. Dolg, A. Bergner, Chem. Phys. Lett., 1996, 255, 274-280.
Sr(ecp-28), Ba(ecp-46): M. Kaupp, P. V. Schleyer, H. Stoll and H. Preuss, J. Chem. Phys., 1991, 94, 1360-1366.
La(ecp-46): M. Dolg, H. Stoll, A. Savin, H. Preuss, Theor. Chim. Acta, 1989, 75, 173-194.
Lu(ecp-28): X. Cao, M. Dolg, J. Chem. Phys., 2001, 115, 7348-7355.

ECP parameters for Zr [Def2-ECP] have been obtained from:
TURBOMOLE (7.0.2)

================================================================================
                                        WARNINGS
                       Please study these warnings very carefully!
================================================================================


INFO   : the flag for use of LIBINT has been found!

================================================================================
                                       INPUT FILE
================================================================================
NAME = TMB01_R1.in
|  1> #
|  2> # TMB01_R1 TPSS-D3BJ/Def2-TZVPPD
|  3> #
|  4> ! tpss d3bj def2-tzvppd def2/j grid4 nofinalgrid
|  5> 
|  6> *xyz 0 1
|  7> Zr      -0.000671    0.112924   -0.223454 
|  8> C       -2.181938   -0.834851   -1.042825 
|  9> C       -1.643164   -1.771750   -0.135830 
| 10> C       -2.502306    0.332733   -0.316676 
| 11> H       -1.308937   -2.768103   -0.380464 
| 12> C       -1.636664   -1.184419    1.151214 
| 13> H       -2.895434    1.248967   -0.729119 
| 14> C       -2.175001    0.113493    1.036510 
| 15> H       -1.306352   -1.655857    2.064126 
| 16> H       -2.282924    0.831022    1.835850 
| 17> C        1.600796   -1.794999   -0.006343 
| 18> C        2.125532   -0.971960   -1.023204 
| 19> C        1.653632   -1.076274    1.213076 
| 20> H        2.228565   -1.232630   -2.063673 
| 21> C        2.505388    0.254502   -0.432287 
| 22> H        1.350619   -1.442345    2.182051 
| 23> C        2.228391    0.183709    0.945544 
| 24> H        2.903936    1.111956   -0.952399 
| 25> H        2.382975    0.976423    1.661482 
| 26> Cl       0.011968    2.512474    0.074703 
| 27> H       -0.001250   -0.010619   -2.053074 
| 28> H       -2.330784   -0.986753   -2.099038 
| 29> H        1.234974   -2.802168   -0.132604 
| 30> *
| 31> 
| 32> %maxcore 5000
| 33> 
| 34> %pal
| 35> nprocs = 24
| 36> end
| 37> 
| 38> 
| 39>                          ****END OF INPUT****
================================================================================

                       ****************************
                       * Single Point Calculation *
                       ****************************

---------------------------------
CARTESIAN COORDINATES (ANGSTROEM)
---------------------------------
  Zr    -0.000671    0.112924   -0.223454
  C     -2.181938   -0.834851   -1.042825
  C     -1.643164   -1.771750   -0.135830
  C     -2.502306    0.332733   -0.316676
  H     -1.308937   -2.768103   -0.380464
  C     -1.636664   -1.184419    1.151214
  H     -2.895434    1.248967   -0.729119
  C     -2.175001    0.113493    1.036510
  H     -1.306352   -1.655857    2.064126
  H     -2.282924    0.831022    1.835850
  C      1.600796   -1.794999   -0.006343
  C      2.125532   -0.971960   -1.023204
  C      1.653632   -1.076274    1.213076
  H      2.228565   -1.232630   -2.063673
  C      2.505388    0.254502   -0.432287
  H      1.350619   -1.442345    2.182051
  C      2.228391    0.183709    0.945544
  H      2.903936    1.111956   -0.952399
  H      2.382975    0.976423    1.661482
  Cl     0.011968    2.512474    0.074703
  H     -0.001250   -0.010619   -2.053074
  H     -2.330784   -0.986753   -2.099038
  H      1.234974   -2.802168   -0.132604

----------------------------
CARTESIAN COORDINATES (A.U.)
----------------------------
  NO LB      ZA    FRAG     MASS         X           Y           Z
   0 Zr   12.0000*   0    91.220   -0.001268    0.213395   -0.422267
   1 C     6.0000    0    12.011   -4.123265   -1.577640   -1.970654
   2 C     6.0000    0    12.011   -3.105130   -3.348122   -0.256682
   3 C     6.0000    0    12.011   -4.728673    0.628774   -0.598431
   4 H     1.0000    0     1.008   -2.473532   -5.230957   -0.718973
   5 C     6.0000    0    12.011   -3.092847   -2.238228    2.175479
   6 H     1.0000    0     1.008   -5.471577    2.360206   -1.377835
   7 C     6.0000    0    12.011   -4.110156    0.214471    1.958720
   8 H     1.0000    0     1.008   -2.468648   -3.129116    3.900633
   9 H     1.0000    0     1.008   -4.314101    1.570404    3.469254
  10 C     6.0000    0    12.011    3.025066   -3.392057   -0.011987
  11 C     6.0000    0    12.011    4.016673   -1.836738   -1.933575
  12 C     6.0000    0    12.011    3.124912   -2.033863    2.292381
  13 H     1.0000    0     1.008    4.211378   -2.329333   -3.899777
  14 C     6.0000    0    12.011    4.734497    0.480939   -0.816904
  15 H     1.0000    0     1.008    2.552300   -2.725637    4.123479
  16 C     6.0000    0    12.011    4.211049    0.347160    1.786819
  17 H     1.0000    0     1.008    5.487644    2.101292   -1.799773
  18 H     1.0000    0     1.008    4.503170    1.845172    3.139746
  19 Cl   17.0000    0    35.453    0.022616    4.747888    0.141168
  20 H     1.0000    0     1.008   -0.002362   -0.020067   -3.879748
  21 H     1.0000    0     1.008   -4.404543   -1.864693   -3.966607
  22 H     1.0000    0     1.008    2.333763   -5.295330   -0.250585
* core charge reduced due to ECP

--------------------------------
INTERNAL COORDINATES (ANGSTROEM)
--------------------------------
 Zr     0   0   0     0.000000000000     0.00000000     0.00000000
 C      1   0   0     2.515466559419     0.00000000     0.00000000
 C      2   1   0     1.410920653085    73.12247516     0.00000000
 C      2   1   3     1.411800418856    73.59840866   114.94503470
 H      3   2   1     1.079014727469   125.85250426   245.37267947
 C      3   2   1     1.414737506217   108.11325565    66.23793646
 H      4   2   1     1.078954862536   126.04072486   111.68690894
 C      4   2   1     1.409364073340   108.20939605   293.76875367
 H      6   3   2     1.079244237850   126.12795999   178.46472239
 H      8   4   2     1.079555313715   125.75431252   178.45751450
 C      1   2   3     2.500400750348   107.22796614    37.91257856
 C     11   1   2     1.409520258293    74.35024165   114.93379122
 C     11   1   2     1.416453305295    73.22968211   229.87141530
 H     12  11   1     1.077562243191   126.22323460   245.56044773
 C     12  11   1     1.413393971640   107.76560677    66.10921066
 H     13  11   1     1.079230005993   126.18261805   115.05657889
 C     15  12  11     1.407180603696   108.22840952     0.56700398
 H     15  12  11     1.079159099931   125.96041597   182.70881656
 H     17  15  12     1.079286300615   125.75809091   181.83498265
 Cl     1   2   3     2.418035885480   114.74596236   216.43021223
 H      1   2   3     1.833786397727    69.47288006   123.52537725
 H      2   1   3     1.077411365584   119.48808811   237.59279035
 H     11   1   2     1.078961060635   119.00971341   352.14516703

---------------------------
INTERNAL COORDINATES (A.U.)
---------------------------
 Zr     0   0   0     0.000000000000     0.00000000     0.00000000
 C      1   0   0     4.753542896339     0.00000000     0.00000000
 C      2   1   0     2.666253631024    73.12247516     0.00000000
 C      2   1   3     2.667916147392    73.59840866   114.94503470
 H      3   2   1     2.039042329383   125.85250426   245.37267947
 C      3   2   1     2.673466438137   108.11325565    66.23793646
 H      4   2   1     2.038929201055   126.04072486   111.68690894
 C      4   2   1     2.663312121600   108.20939605   293.76875367
 H      6   3   2     2.039476041149   126.12795999   178.46472239
 H      8   4   2     2.040063889341   125.75431252   178.45751450
 C      1   2   3     4.725072643208   107.22796614    37.91257856
 C     11   1   2     2.663607268387    74.35024165   114.93379122
 C     11   1   2     2.676708828496    73.22968211   229.87141530
 H     12  11   1     2.036297531884   126.22323460   245.56044773
 C     12  11   1     2.670927525735   107.76560677    66.10921066
 H     13  11   1     2.039449146836   126.18261805   115.05657889
 C     15  12  11     2.659185961952   108.22840952     0.56700398
 H     15  12  11     2.039315153799   125.96041597   182.70881656
 H     17  15  12     2.039555528256   125.75809091   181.83498265
 Cl     1   2   3     4.569425605551   114.74596236   216.43021223
 H      1   2   3     3.465354079815    69.47288006   123.52537725
 H      2   1   3     2.036012414527   119.48808811   237.59279035
 H     11   1   2     2.038940913765   119.00971341   352.14516703

---------------------
BASIS SET INFORMATION
---------------------
There are 4 groups of distinct atoms

 Group   1 Type Zr  : 7s7p5d2f1g contracted to 6s4p3d2f1g pattern {211111/4111/311/11/1}
 Group   2 Type C   : 12s6p3d1f contracted to 6s3p3d1f pattern {621111/411/111/1}
 Group   3 Type H   : 5s3p1d contracted to 3s3p1d pattern {311/111/1}
 Group   4 Type Cl  : 15s10p4d1f contracted to 6s6p4d1f pattern {732111/511111/1111/1}

Atom   0Zr   basis set group =>   1
Atom   1C    basis set group =>   2
Atom   2C    basis set group =>   2
Atom   3C    basis set group =>   2
Atom   4H    basis set group =>   3
Atom   5C    basis set group =>   2
Atom   6H    basis set group =>   3
Atom   7C    basis set group =>   2
Atom   8H    basis set group =>   3
Atom   9H    basis set group =>   3
Atom  10C    basis set group =>   2
Atom  11C    basis set group =>   2
Atom  12C    basis set group =>   2
Atom  13H    basis set group =>   3
Atom  14C    basis set group =>   2
Atom  15H    basis set group =>   3
Atom  16C    basis set group =>   2
Atom  17H    basis set group =>   3
Atom  18H    basis set group =>   3
Atom  19Cl   basis set group =>   4
Atom  20H    basis set group =>   3
Atom  21H    basis set group =>   3
Atom  22H    basis set group =>   3
---------------------------------
AUXILIARY/J BASIS SET INFORMATION
---------------------------------
There are 4 groups of distinct atoms

 Group   1 Type Zr  : 11s5p5d3f3g contracted to 8s5p5d2f3g pattern {41111111/11111/11111/21/111}
 Group   2 Type C   : 12s5p4d2f1g contracted to 6s4p3d1f1g pattern {711111/2111/211/2/1}
 Group   3 Type H   : 5s2p1d contracted to 3s1p1d pattern {311/2/1}
 Group   4 Type Cl  : 14s5p5d2f1g contracted to 8s4p3d1f1g pattern {71111111/2111/311/2/1}

Atom   0Zr   basis set group =>   1
Atom   1C    basis set group =>   2
Atom   2C    basis set group =>   2
Atom   3C    basis set group =>   2
Atom   4H    basis set group =>   3
Atom   5C    basis set group =>   2
Atom   6H    basis set group =>   3
Atom   7C    basis set group =>   2
Atom   8H    basis set group =>   3
Atom   9H    basis set group =>   3
Atom  10C    basis set group =>   2
Atom  11C    basis set group =>   2
Atom  12C    basis set group =>   2
Atom  13H    basis set group =>   3
Atom  14C    basis set group =>   2
Atom  15H    basis set group =>   3
Atom  16C    basis set group =>   2
Atom  17H    basis set group =>   3
Atom  18H    basis set group =>   3
Atom  19Cl   basis set group =>   4
Atom  20H    basis set group =>   3
Atom  21H    basis set group =>   3
Atom  22H    basis set group =>   3
-------------------------
ECP PARAMETER INFORMATION
-------------------------

 Group 1, Type Zr ECP Def2-ECP (replacing 28 core electrons, lmax=3)

Atom   0Zr   ECP group =>   1



           ************************************************************
           *        Program running with 24 parallel MPI-processes    *
           *              working on a common directory               *
           ************************************************************
------------------------------------------------------------------------------
                           ORCA GTO INTEGRAL CALCULATION
                           -- RI-GTO INTEGRALS CHOSEN --
------------------------------------------------------------------------------

                         BASIS SET STATISTICS AND STARTUP INFO

Gaussian basis set:
 # of primitive gaussian shells          ...  371
 # of primitive gaussian functions       ...  877
 # of contracted shells                  ...  240
 # of contracted basis functions         ...  664
 Highest angular momentum                ...    4
 Maximum contraction depth               ...    7
Auxiliary gaussian basis set:
 # of primitive gaussian shells          ...  382
 # of primitive gaussian functions       ... 1052
 # of contracted shells                  ...  245
 # of contracted aux-basis functions     ...  751
 Highest angular momentum                ...    4
 Maximum contraction depth               ...    7
Ratio of auxiliary to basis functions    ...  1.13
Integral package used                  ... LIBINT
 One Electron integrals                  
   ECP integrals                         ... done
 Ordering auxiliary basis shells         ... done
 Integral threshhold             Thresh  ...  1.000e-10
 Primitive cut-off               TCut    ...  1.000e-11
 Pre-screening matrix                    ... done
 Shell pair data                         ... 
 Ordering of the shell pairs             ... done (   0.005 sec) 26117 of 28920 pairs
 Determination of significant pairs      ... done (   0.000 sec)
 Creation of shell pair data             ... done (   0.003 sec)
 Storage of shell pair data              ... done (   0.004 sec)
 Shell pair data done in (   0.011 sec)
 Computing two index integrals           ... done
 Cholesky decomposition of the V-matrix  ... done


Timings:
 Total evaluation time                   ...   2.368 sec (  0.039 min)
 One electron matrix time                ...   2.020 sec (  0.034 min) = 85.3%
 Schwartz matrix evaluation time         ...   0.283 sec (  0.005 min) = 12.0%
 Two index repulsion integral time       ...   0.013 sec (  0.000 min) =  0.5%
 Cholesky decomposition of V             ...   0.010 sec (  0.000 min) =  0.4%
 Three index repulsion integral time     ...   0.000 sec (  0.000 min) =  0.0%



           ************************************************************
           *        Program running with 24 parallel MPI-processes    *
           *              working on a common directory               *
           ************************************************************
-------------------------------------------------------------------------------
                                 ORCA SCF
-------------------------------------------------------------------------------

------------
SCF SETTINGS
------------
Hamiltonian:
 Density Functional     Method          .... DFT(GTOs)
 Exchange Functional    Exchange        .... TPSS
 Correlation Functional Correlation     .... TPSS
 LDA part of GGA corr.  LDAOpt          .... PW91-LDA
 Gradients option       PostSCFGGA      .... off
   Density functional embedding theory  .... OFF
   NL short-range parameter             ....  5.000000
 RI-approximation to the Coulomb term is turned on
   Number of auxiliary basis functions  .... 751


General Settings:
 Integral files         IntName         .... TMB01_R1
 Hartree-Fock type      HFTyp           .... RHF
 Total Charge           Charge          ....    0
 Multiplicity           Mult            ....    1
 Number of Electrons    NEL             ....  100
 Basis Dimension        Dim             ....  664
 Nuclear Repulsion      ENuc            ....    842.2257055069 Eh

Convergence Acceleration:
 DIIS                   CNVDIIS         .... on
   Start iteration      DIISMaxIt       ....    12
   Startup error        DIISStart       ....  0.200000
   # of expansion vecs  DIISMaxEq       ....     5
   Bias factor          DIISBfac        ....   1.050
   Max. coefficient     DIISMaxC        ....  10.000
 Newton-Raphson         CNVNR           .... off
 SOSCF                  CNVSOSCF        .... off
 Level Shifting         CNVShift        .... on
   Level shift para.    LevelShift      ....    0.2500
   Turn off err/grad.   ShiftErr        ....    0.0010
 Zerner damping         CNVZerner       .... off
 Static damping         CNVDamp         .... on
   Fraction old density DampFac         ....    0.7000
   Max. Damping (<1)    DampMax         ....    0.9800
   Min. Damping (>=0)   DampMin         ....    0.0000
   Turn off err/grad.   DampErr         ....    0.1000
 Fernandez-Rico         CNVRico         .... off

SCF Procedure:
 Maximum # iterations   MaxIter         ....   125
 SCF integral mode      SCFMode         .... Direct
   Integral package                     .... LIBINT
 Reset frequency        DirectResetFreq ....    20
 Integral Threshold     Thresh          ....  1.000e-10 Eh
 Primitive CutOff       TCut            ....  1.000e-11 Eh

Convergence Tolerance:
 Convergence Check Mode ConvCheckMode   .... Total+1el-Energy
 Convergence forced     ConvForced      .... 0
 Energy Change          TolE            ....  1.000e-06 Eh
 1-El. energy change                    ....  1.000e-03 Eh
 DIIS Error             TolErr          ....  1.000e-06


Diagonalization of the overlap matrix:
Smallest eigenvalue                        ... 8.497e-07
Time for diagonalization                   ...    0.075 sec
Threshold for overlap eigenvalues          ... 1.000e-08
Number of eigenvalues below threshold      ... 0
Time for construction of square roots      ...    0.064 sec
Total time needed                          ...    0.140 sec

-------------------
DFT GRID GENERATION
-------------------

General Integration Accuracy     IntAcc      ...  4.670
Radial Grid Type                 RadialGrid  ... Gauss-Chebyshev
Angular Grid (max. acc.)         AngularGrid ... Lebedev-302
Angular grid pruning method      GridPruning ... 3 (G Style)
Weight generation scheme         WeightScheme... Becke
Basis function cutoff            BFCut       ...    1.0000e-10
Integration weight cutoff        WCut        ...    1.0000e-14
Grids for H and He will be reduced by one unit

# of grid points (after initial pruning)     ... 116874 (   0.0 sec)
# of grid points (after weights+screening)   ... 103126 (   0.1 sec)
nearest neighbour list constructed           ...    0.0 sec
Grid point re-assignment to atoms done       ...    0.0 sec
Grid point division into batches done        ...    0.3 sec
Reduced shell lists constructed in    0.4 sec

Total number of grid points                  ...   103126
Total number of batches                      ...     1623
Average number of points per batch           ...       63
Average number of grid points per atom       ...     4484
Average number of shells per batch           ...   186.09 (77.54%)
Average number of basis functions per batch  ...   541.57 (81.56%)
Average number of large shells per batch     ...   151.90 (81.63%)
Average number of large basis fcns per batch ...   433.23 (80.00%)
Maximum spatial batch extension              ...   1.99,  2.06,  1.83 au
Average spatial batch extension              ...   0.05,  0.05,  0.05 au

Time for grid setup =    0.516 sec

------------------------------
INITIAL GUESS: MODEL POTENTIAL
------------------------------
Loading Hartree-Fock densities                     ... done
  calling /sw/apps/orca/orca_4_2_0_linux_x86-64_openmpi314/orca TMB01_R1_atom40.inp > TMB01_R1_atom40.out in order to generate an atomic fitting density for atom 0 (Zr with ECP) on-the-fly... 
    atom 0 (Zr), assumed electronic state with S=3: 1s2 2s2 2p6 3s2 3p6 4s2 3d10 4p6 4d2 5s2           ... done
Calculating cut-offs                               ... done
Setting up the integral package                    ... done
Initializing the effective Hamiltonian             ... done
Starting the Coulomb interaction                   ... done (   0.1 sec)
Reading the grid                                   ... done
Mapping shells                                     ... done
Starting the XC term evaluation                    ... done (   0.3 sec)
  promolecular density results
     # of electrons  =    127.994734097
     EX              =   -192.070980502
     EC              =     -5.056451629
     EX+EC           =   -197.127432131
Transforming the Hamiltonian                       ... done (   0.0 sec)
Diagonalizing the Hamiltonian                      ... done (   0.1 sec)
Back transforming the eigenvectors                 ... done (   0.0 sec)
Now organizing SCF variables                       ... done
                      ------------------
                      INITIAL GUESS DONE (   3.0 sec)
                      ------------------
--------------
SCF ITERATIONS
--------------
ITER       Energy         Delta-E        Max-DP      RMS-DP      [F,P]     Damp
               ***  Starting incremental Fock matrix formation  ***
  0   -892.4871860661   0.000000000000 2.71971512  0.02549053  0.9838176 0.7000
  1   -893.9480860277  -1.460899961608 1.13007066  0.00755699  0.2961771 0.7000
                               ***Turning on DIIS***
  2   -894.2579567969  -0.309870769180 0.85801539  0.00738242  0.1775782 0.7000
  3   -894.5553085360  -0.297351739120 0.77532952  0.00683579  0.1523374 0.7000
  4   -894.7971869436  -0.241878407620 0.59051562  0.00510916  0.1084475 0.7000
  5   -894.9617165949  -0.164529651311 1.46157922  0.01235866  0.0763118 0.0000
  6   -895.3395374109  -0.377820816022 0.04947064  0.00063401  0.0074982 0.0000
  7   -895.3404782961  -0.000940885202 0.02337172  0.00023875  0.0029707 0.0000
  8   -895.3406180610  -0.000139764863 0.01546905  0.00011395  0.0014521 0.0000
  9   -895.3406565300  -0.000038469046 0.01505941  0.00011973  0.0006951 0.0000
 10   -895.3406694380  -0.000012907961 0.00483912  0.00003794  0.0006176 0.0000
 11   -895.3406706318  -0.000001193785 0.00815209  0.00005054  0.0003648 0.0000
 12   -895.3406708946  -0.000000262812 0.00726342  0.00004136  0.0001133 0.0000
                 **** Energy Check signals convergence ****

               *****************************************************
               *                     SUCCESS                       *
               *           SCF CONVERGED AFTER  13 CYCLES          *
               *****************************************************


----------------
TOTAL SCF ENERGY
----------------

Total Energy       :         -895.34067102 Eh          -24363.45827 eV

Components:
Nuclear Repulsion  :          842.22570551 Eh           22918.12658 eV
Electronic Energy  :        -1737.56637653 Eh          -47281.58485 eV
One Electron Energy:        -2910.69906410 Eh          -79204.14820 eV
Two Electron Energy:         1173.13268757 Eh           31922.56334 eV

Virial components:
Potential Energy   :        -1756.42766924 Eh          -47794.82672 eV
Kinetic Energy     :          861.08699822 Eh           23431.36845 eV
Virial Ratio       :            2.03977957


DFT components:
N(Alpha)           :       50.000014185964 electrons
N(Beta)            :       50.000014185964 electrons
N(Total)           :      100.000028371929 electrons
E(X)               :      -89.397793264543 Eh       
E(C)               :       -3.507176561143 Eh       
E(XC)              :      -92.904969825686 Eh       
DFET-embed. en.    :        0.000000000000 Eh       

---------------
SCF CONVERGENCE
---------------

  Last Energy change         ...   -1.2654e-07  Tolerance :   1.0000e-06
  Last MAX-Density change    ...    4.8603e-03  Tolerance :   1.0000e-05
  Last RMS-Density change    ...    3.9103e-05  Tolerance :   1.0000e-06
  Last DIIS Error            ...    2.7065e-05  Tolerance :   1.0000e-06

             **** THE GBW FILE WAS UPDATED (TMB01_R1.gbw) ****
             **** DENSITY FILE WAS UPDATED (TMB01_R1.scfp) ****
             **** ENERGY FILE WAS UPDATED (TMB01_R1.en.tmp) ****
             **** THE GBW FILE WAS UPDATED (TMB01_R1.gbw) ****
             **** DENSITY FILE WAS UPDATED (TMB01_R1.scfp) ****
----------------
ORBITAL ENERGIES
----------------

  NO   OCC          E(Eh)            E(eV) 
   0   2.0000    -100.940926     -2746.7422 
   1   2.0000     -10.007911      -272.3291 
   2   2.0000     -10.007444      -272.3164 
   3   2.0000     -10.005809      -272.2719 
   4   2.0000     -10.005693      -272.2688 
   5   2.0000     -10.005654      -272.2677 
   6   2.0000     -10.005227      -272.2561 
   7   2.0000     -10.004730      -272.2425 
   8   2.0000     -10.004446      -272.2348 
   9   2.0000     -10.000663      -272.1319 
  10   2.0000     -10.000430      -272.1255 
  11   2.0000      -9.191963      -250.1260 
  12   2.0000      -6.965519      -189.5414 
  13   2.0000      -6.964651      -189.5178 
  14   2.0000      -6.963030      -189.4737 
  15   2.0000      -2.020368       -54.9770 
  16   2.0000      -1.189534       -32.3689 
  17   2.0000      -1.187580       -32.3157 
  18   2.0000      -1.178256       -32.0620 
  19   2.0000      -0.837709       -22.7952 
  20   2.0000      -0.828156       -22.5353 
  21   2.0000      -0.703526       -19.1439 
  22   2.0000      -0.673085       -18.3156 
  23   2.0000      -0.672139       -18.2898 
  24   2.0000      -0.671136       -18.2625 
  25   2.0000      -0.668292       -18.1852 
  26   2.0000      -0.518600       -14.1118 
  27   2.0000      -0.514126       -13.9901 
  28   2.0000      -0.510927       -13.9030 
  29   2.0000      -0.510043       -13.8790 
  30   2.0000      -0.503093       -13.6899 
  31   2.0000      -0.496766       -13.5177 
  32   2.0000      -0.388119       -10.5612 
  33   2.0000      -0.374176       -10.1819 
  34   2.0000      -0.373741       -10.1700 
  35   2.0000      -0.371814       -10.1176 
  36   2.0000      -0.371177       -10.1002 
  37   2.0000      -0.356198        -9.6926 
  38   2.0000      -0.355052        -9.6614 
  39   2.0000      -0.354668        -9.6510 
  40   2.0000      -0.351857        -9.5745 
  41   2.0000      -0.351480        -9.5643 
  42   2.0000      -0.292737        -7.9658 
  43   2.0000      -0.276493        -7.5238 
  44   2.0000      -0.268562        -7.3080 
  45   2.0000      -0.251595        -6.8462 
  46   2.0000      -0.246112        -6.6971 
  47   2.0000      -0.245744        -6.6870 
  48   2.0000      -0.228971        -6.2306 
  49   2.0000      -0.218565        -5.9474 
  50   0.0000      -0.086395        -2.3509 
  51   0.0000      -0.035384        -0.9628 
  52   0.0000      -0.028199        -0.7673 
  53   0.0000      -0.016244        -0.4420 
  54   0.0000      -0.014462        -0.3935 
  55   0.0000      -0.000916        -0.0249 
  56   0.0000       0.008957         0.2437 
  57   0.0000       0.009410         0.2561 
  58   0.0000       0.017553         0.4777 
  59   0.0000       0.018932         0.5152 
  60   0.0000       0.027071         0.7366 
  61   0.0000       0.028820         0.7842 
  62   0.0000       0.030981         0.8430 
  63   0.0000       0.033968         0.9243 
  64   0.0000       0.039229         1.0675 
  65   0.0000       0.042211         1.1486 
  66   0.0000       0.042982         1.1696 
  67   0.0000       0.044521         1.2115 
  68   0.0000       0.061771         1.6809 
  69   0.0000       0.064862         1.7650 
  70   0.0000       0.067842         1.8461 
  71   0.0000       0.072426         1.9708 
  72   0.0000       0.074103         2.0164 
  73   0.0000       0.078401         2.1334 
  74   0.0000       0.084629         2.3029 
  75   0.0000       0.105260         2.8643 
  76   0.0000       0.107266         2.9189 
  77   0.0000       0.111633         3.0377 
  78   0.0000       0.119188         3.2433 
  79   0.0000       0.124745         3.3945 
  80   0.0000       0.126211         3.4344 
  81   0.0000       0.132345         3.6013 
  82   0.0000       0.135222         3.6796 
  83   0.0000       0.140693         3.8285 
  84   0.0000       0.143049         3.8926 
  85   0.0000       0.154887         4.2147 
  86   0.0000       0.158761         4.3201 
  87   0.0000       0.158834         4.3221 
  88   0.0000       0.162786         4.4296 
  89   0.0000       0.164603         4.4791 
  90   0.0000       0.169202         4.6042 
  91   0.0000       0.172336         4.6895 
  92   0.0000       0.174280         4.7424 
  93   0.0000       0.180618         4.9149 
  94   0.0000       0.182005         4.9526 
  95   0.0000       0.188847         5.1388 
  96   0.0000       0.191107         5.2003 
  97   0.0000       0.198019         5.3884 
  98   0.0000       0.206700         5.6246 
  99   0.0000       0.217163         5.9093 
 100   0.0000       0.221779         6.0349 
 101   0.0000       0.224170         6.1000 
 102   0.0000       0.235221         6.4007 
 103   0.0000       0.236733         6.4418 
 104   0.0000       0.240734         6.5507 
 105   0.0000       0.241906         6.5826 
 106   0.0000       0.249251         6.7825 
 107   0.0000       0.250974         6.8294 
 108   0.0000       0.252704         6.8764 
 109   0.0000       0.255349         6.9484 
 110   0.0000       0.260770         7.0959 
 111   0.0000       0.262919         7.1544 
 112   0.0000       0.263926         7.1818 
 113   0.0000       0.266798         7.2599 
 114   0.0000       0.268256         7.2996 
 115   0.0000       0.271855         7.3976 
 116   0.0000       0.276311         7.5188 
 117   0.0000       0.279138         7.5957 
 118   0.0000       0.279940         7.6175 
 119   0.0000       0.280096         7.6218 
 120   0.0000       0.284786         7.7494 
 121   0.0000       0.287939         7.8352 
 122   0.0000       0.289978         7.8907 
 123   0.0000       0.297846         8.1048 
 124   0.0000       0.298771         8.1300 
 125   0.0000       0.300812         8.1855 
 126   0.0000       0.309309         8.4167 
 127   0.0000       0.315892         8.5958 
 128   0.0000       0.319800         8.7022 
 129   0.0000       0.325122         8.8470 
 130   0.0000       0.326427         8.8825 
 131   0.0000       0.333133         9.0650 
 132   0.0000       0.338697         9.2164 
 133   0.0000       0.343701         9.3526 
 134   0.0000       0.346266         9.4224 
 135   0.0000       0.346905         9.4398 
 136   0.0000       0.351218         9.5571 
 137   0.0000       0.352513         9.5924 
 138   0.0000       0.357132         9.7180 
 139   0.0000       0.357797         9.7362 
 140   0.0000       0.361325         9.8322 
 141   0.0000       0.365479         9.9452 
 142   0.0000       0.370492        10.0816 
 143   0.0000       0.374107        10.1800 
 144   0.0000       0.378658        10.3038 
 145   0.0000       0.379988        10.3400 
 146   0.0000       0.386460        10.5161 
 147   0.0000       0.390204        10.6180 
 148   0.0000       0.391194        10.6449 
 149   0.0000       0.396463        10.7883 
 150   0.0000       0.402708        10.9582 
 151   0.0000       0.405432        11.0324 
 152   0.0000       0.415330        11.3017 
 153   0.0000       0.420024        11.4294 
 154   0.0000       0.421749        11.4764 
 155   0.0000       0.422844        11.5062 
 156   0.0000       0.426768        11.6129 
 157   0.0000       0.430413        11.7121 
 158   0.0000       0.432104        11.7581 
 159   0.0000       0.438587        11.9346 
 160   0.0000       0.442487        12.0407 
 161   0.0000       0.448932        12.2161 
 162   0.0000       0.452153        12.3037 
 163   0.0000       0.457253        12.4425 
 164   0.0000       0.464886        12.6502 
 165   0.0000       0.473839        12.8938 
 166   0.0000       0.482388        13.1265 
 167   0.0000       0.485743        13.2177 
 168   0.0000       0.490265        13.3408 
 169   0.0000       0.490882        13.3576 
 170   0.0000       0.497041        13.5252 
 171   0.0000       0.498632        13.5685 
 172   0.0000       0.508505        13.8371 
 173   0.0000       0.517812        14.0904 
 174   0.0000       0.522466        14.2170 
 175   0.0000       0.524205        14.2643 
 176   0.0000       0.532350        14.4860 
 177   0.0000       0.533722        14.5233 
 178   0.0000       0.537963        14.6387 
 179   0.0000       0.542724        14.7683 
 180   0.0000       0.547589        14.9007 
 181   0.0000       0.558232        15.1903 
 182   0.0000       0.562843        15.3157 
 183   0.0000       0.565518        15.3885 
 184   0.0000       0.568388        15.4666 
 185   0.0000       0.574025        15.6200 
 186   0.0000       0.576731        15.6937 
 187   0.0000       0.580114        15.7857 
 188   0.0000       0.581392        15.8205 
 189   0.0000       0.587072        15.9750 
 190   0.0000       0.591407        16.0930 
 191   0.0000       0.593395        16.1471 
 192   0.0000       0.598131        16.2760 
 193   0.0000       0.603972        16.4349 
 194   0.0000       0.606156        16.4943 
 195   0.0000       0.616014        16.7626 
 196   0.0000       0.621562        16.9136 
 197   0.0000       0.622257        16.9325 
 198   0.0000       0.625674        17.0255 
 199   0.0000       0.631721        17.1900 
 200   0.0000       0.633950        17.2507 
 201   0.0000       0.640440        17.4273 
 202   0.0000       0.642275        17.4772 
 203   0.0000       0.645425        17.5629 
 204   0.0000       0.650454        17.6997 
 205   0.0000       0.651987        17.7415 
 206   0.0000       0.653607        17.7855 
 207   0.0000       0.659168        17.9369 
 208   0.0000       0.663860        18.0646 
 209   0.0000       0.664962        18.0945 
 210   0.0000       0.668464        18.1898 
 211   0.0000       0.671808        18.2808 
 212   0.0000       0.679118        18.4797 
 213   0.0000       0.683864        18.6089 
 214   0.0000       0.686730        18.6869 
 215   0.0000       0.698857        19.0169 
 216   0.0000       0.699565        19.0361 
 217   0.0000       0.708193        19.2709 
 218   0.0000       0.709533        19.3074 
 219   0.0000       0.710059        19.3217 
 220   0.0000       0.714914        19.4538 
 221   0.0000       0.717622        19.5275 
 222   0.0000       0.719191        19.5702 
 223   0.0000       0.721797        19.6411 
 224   0.0000       0.725490        19.7416 
 225   0.0000       0.727328        19.7916 
 226   0.0000       0.729103        19.8399 
 227   0.0000       0.732770        19.9397 
 228   0.0000       0.735713        20.0198 
 229   0.0000       0.741849        20.1867 
 230   0.0000       0.744639        20.2627 
 231   0.0000       0.748867        20.3777 
 232   0.0000       0.754742        20.5376 
 233   0.0000       0.760240        20.6872 
 234   0.0000       0.763456        20.7747 
 235   0.0000       0.771846        21.0030 
 236   0.0000       0.776554        21.1311 
 237   0.0000       0.779977        21.2242 
 238   0.0000       0.782407        21.2904 
 239   0.0000       0.788572        21.4581 
 240   0.0000       0.793381        21.5890 
 241   0.0000       0.804304        21.8862 
 242   0.0000       0.808511        22.0007 
 243   0.0000       0.819096        22.2887 
 244   0.0000       0.829125        22.5616 
 245   0.0000       0.838420        22.8146 
 246   0.0000       0.850020        23.1302 
 247   0.0000       0.856455        23.3053 
 248   0.0000       0.865975        23.5644 
 249   0.0000       0.876481        23.8503 
 250   0.0000       0.885266        24.0893 
 251   0.0000       0.896959        24.4075 
 252   0.0000       0.901407        24.5285 
 253   0.0000       0.907920        24.7058 
 254   0.0000       0.914588        24.8872 
 255   0.0000       0.925015        25.1709 
 256   0.0000       0.931804        25.3557 
 257   0.0000       0.942198        25.6385 
 258   0.0000       0.959402        26.1067 
 259   0.0000       0.967332        26.3225 
 260   0.0000       0.978156        26.6170 
 261   0.0000       0.984192        26.7812 
 262   0.0000       0.988962        26.9110 
 263   0.0000       0.993708        27.0402 
 264   0.0000       0.999659        27.2021 
 265   0.0000       1.018993        27.7282 
 266   0.0000       1.030279        28.0353 
 267   0.0000       1.031925        28.0801 
 268   0.0000       1.050207        28.5776 
 269   0.0000       1.058010        28.7899 
 270   0.0000       1.085411        29.5355 
 271   0.0000       1.090649        29.6781 
 272   0.0000       1.099442        29.9173 
 273   0.0000       1.106477        30.1088 
 274   0.0000       1.111170        30.2365 
 275   0.0000       1.118242        30.4289 
 276   0.0000       1.139227        30.9999 
 277   0.0000       1.146300        31.1924 
 278   0.0000       1.162414        31.6309 
 279   0.0000       1.166435        31.7403 
 280   0.0000       1.179176        32.0870 
 281   0.0000       1.191151        32.4129 
 282   0.0000       1.194123        32.4937 
 283   0.0000       1.198977        32.6258 
 284   0.0000       1.210796        32.9474 
 285   0.0000       1.225936        33.3594 
 286   0.0000       1.237572        33.6761 
 287   0.0000       1.250316        34.0228 
 288   0.0000       1.257090        34.2072 
 289   0.0000       1.267712        34.4962 
 290   0.0000       1.285493        34.9800 
 291   0.0000       1.292022        35.1577 
 292   0.0000       1.292188        35.1622 
 293   0.0000       1.304989        35.5106 
 294   0.0000       1.308373        35.6026 
 295   0.0000       1.321601        35.9626 
 296   0.0000       1.325205        36.0607 
 297   0.0000       1.334051        36.3014 
 298   0.0000       1.342243        36.5243 
 299   0.0000       1.346994        36.6536 
 300   0.0000       1.354342        36.8535 
 301   0.0000       1.358193        36.9583 
 302   0.0000       1.372612        37.3507 
 303   0.0000       1.378774        37.5184 
 304   0.0000       1.384030        37.6614 
 305   0.0000       1.390044        37.8250 
 306   0.0000       1.401649        38.1408 
 307   0.0000       1.402768        38.1713 
 308   0.0000       1.415554        38.5192 
 309   0.0000       1.418179        38.5906 
 310   0.0000       1.420375        38.6504 
 311   0.0000       1.421318        38.6760 
 312   0.0000       1.427400        38.8415 
 313   0.0000       1.439456        39.1696 
 314   0.0000       1.444485        39.3064 
 315   0.0000       1.447785        39.3962 
 316   0.0000       1.454769        39.5863 
 317   0.0000       1.463207        39.8159 
 318   0.0000       1.471268        40.0352 
 319   0.0000       1.477602        40.2076 
 320   0.0000       1.478510        40.2323 
 321   0.0000       1.486884        40.4602 
 322   0.0000       1.487982        40.4901 
 323   0.0000       1.495428        40.6927 
 324   0.0000       1.503828        40.9212 
 325   0.0000       1.505140        40.9569 
 326   0.0000       1.514880        41.2220 
 327   0.0000       1.519292        41.3420 
 328   0.0000       1.534918        41.7672 
 329   0.0000       1.552264        42.2393 
 330   0.0000       1.559483        42.4357 
 331   0.0000       1.570607        42.7384 
 332   0.0000       1.572037        42.7773 
 333   0.0000       1.601058        43.5670 
 334   0.0000       1.609464        43.7957 
 335   0.0000       1.620908        44.1072 
 336   0.0000       1.642872        44.7048 
 337   0.0000       1.644595        44.7517 
 338   0.0000       1.648569        44.8599 
 339   0.0000       1.661400        45.2090 
 340   0.0000       1.696186        46.1556 
 341   0.0000       1.729634        47.0657 
 342   0.0000       1.738628        47.3105 
 343   0.0000       1.748195        47.5708 
 344   0.0000       1.760623        47.9090 
 345   0.0000       1.793122        48.7933 
 346   0.0000       1.801084        49.0100 
 347   0.0000       1.813118        49.3374 
 348   0.0000       1.814770        49.3824 
 349   0.0000       1.818503        49.4840 
 350   0.0000       1.829413        49.7809 
 351   0.0000       1.831488        49.8373 
 352   0.0000       1.838614        50.0312 
 353   0.0000       1.841842        50.1191 
 354   0.0000       1.843047        50.1518 
 355   0.0000       1.844946        50.2035 
 356   0.0000       1.857774        50.5526 
 357   0.0000       1.862269        50.6749 
 358   0.0000       1.876728        51.0684 
 359   0.0000       1.879830        51.1528 
 360   0.0000       1.889547        51.4172 
 361   0.0000       1.893240        51.5177 
 362   0.0000       1.896924        51.6179 
 363   0.0000       1.917422        52.1757 
 364   0.0000       1.929376        52.5010 
 365   0.0000       1.948275        53.0153 
 366   0.0000       1.956492        53.2389 
 367   0.0000       1.959510        53.3210 
 368   0.0000       1.969669        53.5974 
 369   0.0000       1.977314        53.8055 
 370   0.0000       1.985643        54.0321 
 371   0.0000       1.991935        54.2033 
 372   0.0000       2.007544        54.6281 
 373   0.0000       2.013650        54.7942 
 374   0.0000       2.018456        54.9250 
 375   0.0000       2.036845        55.4254 
 376   0.0000       2.050796        55.8050 
 377   0.0000       2.063216        56.1430 
 378   0.0000       2.075989        56.4905 
 379   0.0000       2.087152        56.7943 
 380   0.0000       2.102892        57.2226 
 381   0.0000       2.112968        57.4968 
 382   0.0000       2.126462        57.8640 
 383   0.0000       2.132468        58.0274 
 384   0.0000       2.143154        58.3182 
 385   0.0000       2.149929        58.5025 
 386   0.0000       2.156677        58.6862 
 387   0.0000       2.179691        59.3124 
 388   0.0000       2.200686        59.8837 
 389   0.0000       2.204964        60.0001 
 390   0.0000       2.216864        60.3239 
 391   0.0000       2.243525        61.0494 
 392   0.0000       2.248768        61.1921 
 393   0.0000       2.304276        62.7025 
 394   0.0000       2.307651        62.7944 
 395   0.0000       2.316880        63.0455 
 396   0.0000       2.352344        64.0105 
 397   0.0000       2.363308        64.3089 
 398   0.0000       2.365548        64.3698 
 399   0.0000       2.379394        64.7466 
 400   0.0000       2.389276        65.0155 
 401   0.0000       2.406153        65.4748 
 402   0.0000       2.429239        66.1029 
 403   0.0000       2.436416        66.2983 
 404   0.0000       2.439088        66.3710 
 405   0.0000       2.453965        66.7758 
 406   0.0000       2.464439        67.0608 
 407   0.0000       2.534726        68.9734 
 408   0.0000       2.547822        69.3298 
 409   0.0000       2.560180        69.6660 
 410   0.0000       2.566425        69.8360 
 411   0.0000       2.575677        70.0877 
 412   0.0000       2.583800        70.3088 
 413   0.0000       2.605202        70.8911 
 414   0.0000       2.607940        70.9657 
 415   0.0000       2.612797        71.0978 
 416   0.0000       2.630713        71.5853 
 417   0.0000       2.634427        71.6864 
 418   0.0000       2.652219        72.1705 
 419   0.0000       2.666794        72.5672 
 420   0.0000       2.678493        72.8855 
 421   0.0000       2.690623        73.2156 
 422   0.0000       2.706692        73.6528 
 423   0.0000       2.718756        73.9811 
 424   0.0000       2.752856        74.9090 
 425   0.0000       2.774656        75.5022 
 426   0.0000       2.787613        75.8548 
 427   0.0000       2.806108        76.3581 
 428   0.0000       2.824319        76.8536 
 429   0.0000       2.834544        77.1319 
 430   0.0000       2.848260        77.5051 
 431   0.0000       2.863150        77.9103 
 432   0.0000       2.866883        78.0119 
 433   0.0000       2.868024        78.0429 
 434   0.0000       2.874585        78.2214 
 435   0.0000       2.877461        78.2997 
 436   0.0000       2.889674        78.6320 
 437   0.0000       2.896471        78.8170 
 438   0.0000       2.916396        79.3592 
 439   0.0000       2.924549        79.5810 
 440   0.0000       2.933580        79.8268 
 441   0.0000       2.950445        80.2857 
 442   0.0000       2.982625        81.1614 
 443   0.0000       3.003011        81.7161 
 444   0.0000       3.016668        82.0877 
 445   0.0000       3.043259        82.8113 
 446   0.0000       3.058945        83.2381 
 447   0.0000       3.073031        83.6214 
 448   0.0000       3.092577        84.1533 
 449   0.0000       3.102914        84.4346 
 450   0.0000       3.107222        84.5518 
 451   0.0000       3.116378        84.8010 
 452   0.0000       3.121938        84.9523 
 453   0.0000       3.135534        85.3222 
 454   0.0000       3.145159        85.5841 
 455   0.0000       3.156639        85.8965 
 456   0.0000       3.185005        86.6684 
 457   0.0000       3.197961        87.0210 
 458   0.0000       3.214832        87.4800 
 459   0.0000       3.228689        87.8571 
 460   0.0000       3.256184        88.6053 
 461   0.0000       3.285692        89.4082 
 462   0.0000       3.297956        89.7419 
 463   0.0000       3.305936        89.9591 
 464   0.0000       3.330972        90.6404 
 465   0.0000       3.338148        90.8356 
 466   0.0000       3.340092        90.8885 
 467   0.0000       3.350826        91.1806 
 468   0.0000       3.358831        91.3984 
 469   0.0000       3.362214        91.4905 
 470   0.0000       3.370341        91.7116 
 471   0.0000       3.379085        91.9496 
 472   0.0000       3.380668        91.9927 
 473   0.0000       3.393102        92.3310 
 474   0.0000       3.394675        92.3738 
 475   0.0000       3.400114        92.5218 
 476   0.0000       3.404463        92.6402 
 477   0.0000       3.414944        92.9254 
 478   0.0000       3.427163        93.2578 
 479   0.0000       3.429363        93.3177 
 480   0.0000       3.433459        93.4292 
 481   0.0000       3.438030        93.5535 
 482   0.0000       3.461011        94.1789 
 483   0.0000       3.465671        94.3057 
 484   0.0000       3.475733        94.5795 
 485   0.0000       3.488958        94.9394 
 486   0.0000       3.500941        95.2655 
 487   0.0000       3.506019        95.4036 
 488   0.0000       3.518399        95.7405 
 489   0.0000       3.527464        95.9872 
 490   0.0000       3.528605        96.0182 
 491   0.0000       3.538254        96.2808 
 492   0.0000       3.545394        96.4751 
 493   0.0000       3.551467        96.6403 
 494   0.0000       3.554021        96.7098 
 495   0.0000       3.554263        96.7164 
 496   0.0000       3.557859        96.8143 
 497   0.0000       3.562611        96.9436 
 498   0.0000       3.575080        97.2829 
 499   0.0000       3.589252        97.6685 
 500   0.0000       3.594674        97.8161 
 501   0.0000       3.603004        98.0427 
 502   0.0000       3.609291        98.2138 
 503   0.0000       3.616965        98.4226 
 504   0.0000       3.639136        99.0259 
 505   0.0000       3.648482        99.2802 
 506   0.0000       3.659632        99.5836 
 507   0.0000       3.661792        99.6424 
 508   0.0000       3.667555        99.7992 
 509   0.0000       3.674454        99.9870 
 510   0.0000       3.686258       100.3082 
 511   0.0000       3.691376       100.4475 
 512   0.0000       3.701237       100.7158 
 513   0.0000       3.703956       100.7898 
 514   0.0000       3.710881       100.9782 
 515   0.0000       3.720405       101.2374 
 516   0.0000       3.729692       101.4901 
 517   0.0000       3.752531       102.1116 
 518   0.0000       3.757130       102.2367 
 519   0.0000       3.767466       102.5180 
 520   0.0000       3.771114       102.6172 
 521   0.0000       3.777330       102.7864 
 522   0.0000       3.823365       104.0390 
 523   0.0000       3.830348       104.2291 
 524   0.0000       3.865718       105.1915 
 525   0.0000       3.897958       106.0688 
 526   0.0000       3.909747       106.3896 
 527   0.0000       3.914183       106.5103 
 528   0.0000       3.928887       106.9105 
 529   0.0000       3.937812       107.1533 
 530   0.0000       3.941699       107.2591 
 531   0.0000       3.950666       107.5031 
 532   0.0000       3.956974       107.6747 
 533   0.0000       3.964381       107.8763 
 534   0.0000       3.982532       108.3702 
 535   0.0000       3.994626       108.6993 
 536   0.0000       4.003496       108.9407 
 537   0.0000       4.004390       108.9650 
 538   0.0000       4.036987       109.8520 
 539   0.0000       4.042425       110.0000 
 540   0.0000       4.053508       110.3016 
 541   0.0000       4.067112       110.6717 
 542   0.0000       4.129150       112.3599 
 543   0.0000       4.147009       112.8458 
 544   0.0000       4.182660       113.8160 
 545   0.0000       4.188667       113.9794 
 546   0.0000       4.212061       114.6160 
 547   0.0000       4.218811       114.7997 
 548   0.0000       4.233786       115.2072 
 549   0.0000       4.242072       115.4326 
 550   0.0000       4.249908       115.6459 
 551   0.0000       4.256402       115.8226 
 552   0.0000       4.260230       115.9268 
 553   0.0000       4.264195       116.0347 
 554   0.0000       4.270389       116.2032 
 555   0.0000       4.276168       116.3604 
 556   0.0000       4.279288       116.4453 
 557   0.0000       4.290399       116.7477 
 558   0.0000       4.299749       117.0021 
 559   0.0000       4.301019       117.0367 
 560   0.0000       4.317961       117.4977 
 561   0.0000       4.319644       117.5435 
 562   0.0000       4.328215       117.7767 
 563   0.0000       4.338119       118.0462 
 564   0.0000       4.340692       118.1162 
 565   0.0000       4.347577       118.3036 
 566   0.0000       4.363332       118.7323 
 567   0.0000       4.364450       118.7627 
 568   0.0000       4.387672       119.3946 
 569   0.0000       4.409504       119.9887 
 570   0.0000       4.423895       120.3803 
 571   0.0000       4.443722       120.9198 
 572   0.0000       4.459744       121.3558 
 573   0.0000       4.466419       121.5374 
 574   0.0000       4.470576       121.6505 
 575   0.0000       4.476800       121.8199 
 576   0.0000       4.489918       122.1769 
 577   0.0000       4.505440       122.5992 
 578   0.0000       4.513000       122.8050 
 579   0.0000       4.549126       123.7880 
 580   0.0000       4.562106       124.1412 
 581   0.0000       4.576115       124.5224 
 582   0.0000       4.583438       124.7217 
 583   0.0000       4.585898       124.7886 
 584   0.0000       4.603427       125.2656 
 585   0.0000       4.619669       125.7076 
 586   0.0000       4.629410       125.9726 
 587   0.0000       4.704518       128.0164 
 588   0.0000       4.740675       129.0003 
 589   0.0000       4.767046       129.7179 
 590   0.0000       4.781845       130.1206 
 591   0.0000       4.820362       131.1687 
 592   0.0000       4.875798       132.6772 
 593   0.0000       4.890587       133.0796 
 594   0.0000       4.898074       133.2834 
 595   0.0000       4.905291       133.4798 
 596   0.0000       4.912894       133.6866 
 597   0.0000       4.926055       134.0448 
 598   0.0000       4.929414       134.1362 
 599   0.0000       4.938401       134.3807 
 600   0.0000       4.944554       134.5482 
 601   0.0000       4.955291       134.8403 
 602   0.0000       4.957673       134.9051 
 603   0.0000       4.967627       135.1760 
 604   0.0000       4.983723       135.6140 
 605   0.0000       4.987678       135.7216 
 606   0.0000       5.027488       136.8049 
 607   0.0000       5.031732       136.9204 
 608   0.0000       5.058115       137.6383 
 609   0.0000       5.284913       143.8098 
 610   0.0000       5.288046       143.8951 
 611   0.0000       5.308460       144.4505 
 612   0.0000       5.314021       144.6019 
 613   0.0000       5.338770       145.2753 
 614   0.0000       5.347912       145.5241 
 615   0.0000       5.361339       145.8894 
 616   0.0000       5.361970       145.9066 
 617   0.0000       5.416289       147.3847 
 618   0.0000       5.426204       147.6545 
 619   0.0000       5.430953       147.7837 
 620   0.0000       5.435325       147.9027 
 621   0.0000       5.446728       148.2130 
 622   0.0000       5.463866       148.6794 
 623   0.0000       5.465924       148.7354 
 624   0.0000       5.467905       148.7892 
 625   0.0000       5.469380       148.8294 
 626   0.0000       5.504116       149.7746 
 627   0.0000       5.538296       150.7047 
 628   0.0000       5.586089       152.0052 
 629   0.0000       5.830031       158.6432 
 630   0.0000       5.841311       158.9501 
 631   0.0000       5.849063       159.1611 
 632   0.0000       5.871799       159.7798 
 633   0.0000       6.050524       164.6431 
 634   0.0000       6.057693       164.8382 
 635   0.0000       6.063521       164.9968 
 636   0.0000       6.075288       165.3170 
 637   0.0000       6.078499       165.4044 
 638   0.0000       6.083480       165.5399 
 639   0.0000       6.098609       165.9516 
 640   0.0000       6.099158       165.9665 
 641   0.0000       6.709612       182.5778 
 642   0.0000       6.716341       182.7609 
 643   0.0000       8.140735       221.5207 
 644   0.0000       8.150732       221.7927 
 645   0.0000       8.207973       223.3503 
 646   0.0000       8.278114       225.2589 
 647   0.0000       8.295793       225.7400 
 648   0.0000      10.948713       297.9296 
 649   0.0000      11.036718       300.3244 
 650   0.0000      11.287537       307.1495 
 651   0.0000      21.267233       578.7108 
 652   0.0000      23.127078       629.3198 
 653   0.0000      23.169965       630.4868 
 654   0.0000      23.359255       635.6376 
 655   0.0000      23.367540       635.8631 
 656   0.0000      23.380531       636.2166 
 657   0.0000      23.394849       636.6062 
 658   0.0000      23.715390       645.3286 
 659   0.0000      23.730644       645.7437 
 660   0.0000      23.758216       646.4939 
 661   0.0000      23.780638       647.1040 
 662   0.0000      26.310754       715.9520 
 663   0.0000      72.901790      1983.7586 

                    ********************************
                    * MULLIKEN POPULATION ANALYSIS *
                    ********************************

-----------------------
MULLIKEN ATOMIC CHARGES
-----------------------
   0 Zr:   -0.082366
   1 C :    0.164166
   2 C :    0.167751
   3 C :    0.076227
   4 H :    0.016231
   5 C :   -0.081062
   6 H :   -0.011881
   7 C :    0.191611
   8 H :   -0.047528
   9 H :   -0.052862
  10 C :    0.231623
  11 C :    0.119805
  12 C :   -0.103871
  13 H :   -0.004922
  14 C :    0.056811
  15 H :   -0.007749
  16 C :    0.172398
  17 H :   -0.033544
  18 H :   -0.034351
  19 Cl:   -0.561873
  20 H :   -0.195543
  21 H :    0.004661
  22 H :    0.016267
Sum of atomic charges:    0.0000000

--------------------------------
MULLIKEN REDUCED ORBITAL CHARGES
--------------------------------
  0 Zrs       :     2.636498  s :     2.636498
      pz      :     2.225229  p :     7.082611
      px      :     2.618959
      py      :     2.238422
      dz2     :     0.624011  d :     2.077363
      dxz     :     0.503320
      dyz     :     0.213175
      dx2y2   :     0.409020
      dxy     :     0.327837
      f0      :     0.033584  f :     0.245350
      f+1     :     0.023054
      f-1     :     0.017663
      f+2     :     0.036182
      f-2     :     0.021677
      f+3     :     0.077693
      f-3     :     0.035496
      g0      :     0.001816  g :     0.040544
      g+1     :     0.004232
      g-1     :     0.003120
      g+2     :     0.003865
      g-2     :     0.002491
      g+3     :     0.004466
      g-3     :     0.005069
      g+4     :     0.008948
      g-4     :     0.006538
  1 C s       :     3.305749  s :     3.305749
      pz      :     0.742854  p :     2.426226
      px      :     0.879861
      py      :     0.803510
      dz2     :     0.044935  d :     0.095930
      dxz     :    -0.029790
      dyz     :     0.021728
      dx2y2   :     0.030207
      dxy     :     0.028849
      f0      :     0.001190  f :     0.007930
      f+1     :     0.000708
      f-1     :     0.002094
      f+2     :     0.001285
      f-2     :     0.001146
      f+3     :     0.000757
      f-3     :     0.000749
  2 C s       :     3.231257  s :     3.231257
      pz      :     0.728526  p :     2.522146
      px      :     0.878531
      py      :     0.915089
      dz2     :     0.074252  d :     0.071124
      dxz     :     0.036023
      dyz     :    -0.028683
      dx2y2   :    -0.015477
      dxy     :     0.005009
      f0      :     0.001427  f :     0.007722
      f+1     :     0.000979
      f-1     :     0.001351
      f+2     :     0.001107
      f-2     :     0.001254
      f+3     :     0.000782
      f-3     :     0.000822
  3 C s       :     3.275515  s :     3.275515
      pz      :     0.835493  p :     2.549033
      px      :     0.946885
      py      :     0.766655
      dz2     :     0.029237  d :     0.091462
      dxz     :     0.014604
      dyz     :     0.050220
      dx2y2   :     0.007494
      dxy     :    -0.010093
      f0      :     0.001142  f :     0.007762
      f+1     :     0.000861
      f-1     :     0.002189
      f+2     :     0.000947
      f-2     :     0.000897
      f+3     :     0.000911
      f-3     :     0.000816
  4 H s       :     0.924080  s :     0.924080
      pz      :    -0.001081  p :     0.058164
      px      :     0.014269
      py      :     0.044976
      dz2     :     0.000141  d :     0.001525
      dxz     :     0.000083
      dyz     :     0.000535
      dx2y2   :     0.000376
      dxy     :     0.000390
  5 C s       :     3.376201  s :     3.376201
      pz      :     0.837116  p :     2.594625
      px      :     0.900273
      py      :     0.857237
      dz2     :    -0.005945  d :     0.102490
      dxz     :     0.034818
      dyz     :     0.052882
      dx2y2   :     0.004148
      dxy     :     0.016588
      f0      :     0.001688  f :     0.007745
      f+1     :     0.001348
      f-1     :     0.001066
      f+2     :     0.000954
      f-2     :     0.000983
      f+3     :     0.000726
      f-3     :     0.000980
  6 H s       :     0.921013  s :     0.921013
      pz      :     0.008657  p :     0.089408
      px      :     0.066721
      py      :     0.014030
      dz2     :     0.000277  d :     0.001460
      dxz     :     0.000161
      dyz     :     0.000314
      dx2y2   :     0.000330
      dxy     :     0.000378
  7 C s       :     3.250838  s :     3.250838
      pz      :     0.819840  p :     2.478670
      px      :     0.884893
      py      :     0.773938
      dz2     :    -0.012515  d :     0.071070
      dxz     :     0.009528
      dyz     :     0.090645
      dx2y2   :     0.004266
      dxy     :    -0.020854
      f0      :     0.001458  f :     0.007810
      f+1     :     0.001282
      f-1     :     0.001668
      f+2     :     0.000830
      f-2     :     0.000723
      f+3     :     0.000563
      f-3     :     0.001287
  8 H s       :     0.965207  s :     0.965207
      pz      :     0.034835  p :     0.080819
      px      :     0.030918
      py      :     0.015066
      dz2     :     0.000510  d :     0.001502
      dxz     :     0.000306
      dyz     :     0.000350
      dx2y2   :     0.000170
      dxy     :     0.000167
  9 H s       :     0.969385  s :     0.969385
      pz      :     0.020625  p :     0.082032
      px      :     0.046798
      py      :     0.014609
      dz2     :     0.000545  d :     0.001445
      dxz     :     0.000344
      dyz     :     0.000095
      dx2y2   :     0.000198
      dxy     :     0.000262
 10 C s       :     3.216445  s :     3.216445
      pz      :     0.708127  p :     2.487821
      px      :     0.874689
      py      :     0.905004
      dz2     :     0.083294  d :     0.056395
      dxz     :     0.066901
      dyz     :    -0.080948
      dx2y2   :    -0.023737
      dxy     :     0.010884
      f0      :     0.001595  f :     0.007716
      f+1     :     0.000822
      f-1     :     0.001125
      f+2     :     0.001201
      f-2     :     0.001443
      f+3     :     0.000817
      f-3     :     0.000714
 11 C s       :     3.326298  s :     3.326298
      pz      :     0.732252  p :     2.455244
      px      :     0.925901
      py      :     0.797091
      dz2     :     0.039429  d :     0.090742
      dxz     :    -0.041985
      dyz     :     0.040658
      dx2y2   :     0.025628
      dxy     :     0.027013
      f0      :     0.001360  f :     0.007911
      f+1     :     0.000705
      f-1     :     0.001905
      f+2     :     0.001381
      f-2     :     0.001022
      f+3     :     0.000786
      f-3     :     0.000752
 12 C s       :     3.421266  s :     3.421266
      pz      :     0.843573  p :     2.572702
      px      :     0.927404
      py      :     0.801725
      dz2     :    -0.011910  d :     0.102157
      dxz     :     0.016538
      dyz     :     0.031916
      dx2y2   :     0.035039
      dxy     :     0.030575
      f0      :     0.001678  f :     0.007746
      f+1     :     0.001152
      f-1     :     0.001124
      f+2     :     0.000991
      f-2     :     0.001199
      f+3     :     0.000627
      f-3     :     0.000975
 13 H s       :     0.937549  s :     0.937549
      pz      :     0.022622  p :     0.065936
      px      :     0.047649
      py      :    -0.004336
      dz2     :     0.000216  d :     0.001437
      dxz     :     0.000527
      dyz     :     0.000569
      dx2y2   :     0.000063
      dxy     :     0.000063
 14 C s       :     3.262954  s :     3.262954
      pz      :     0.859013  p :     2.574684
      px      :     0.944182
      py      :     0.771489
      dz2     :     0.026040  d :     0.097782
      dxz     :     0.021412
      dyz     :     0.058060
      dx2y2   :     0.001821
      dxy     :    -0.009551
      f0      :     0.001067  f :     0.007769
      f+1     :     0.001036
      f-1     :     0.002286
      f+2     :     0.000810
      f-2     :     0.000766
      f+3     :     0.000874
      f-3     :     0.000929
 15 H s       :     0.938446  s :     0.938446
      pz      :     0.033996  p :     0.067808
      px      :     0.029716
      py      :     0.004096
      dz2     :     0.000445  d :     0.001496
      dxz     :     0.000355
      dyz     :     0.000452
      dx2y2   :     0.000115
      dxy     :     0.000130
 16 C s       :     3.285122  s :     3.285122
      pz      :     0.840840  p :     2.468460
      px      :     0.882883
      py      :     0.744737
      dz2     :    -0.005254  d :     0.066189
      dxz     :     0.010637
      dyz     :     0.082141
      dx2y2   :    -0.004391
      dxy     :    -0.016944
      f0      :     0.001210  f :     0.007831
      f+1     :     0.001410
      f-1     :     0.001943
      f+2     :     0.000687
      f-2     :     0.000668
      f+3     :     0.000591
      f-3     :     0.001322
 17 H s       :     0.938779  s :     0.938779
      pz      :     0.012784  p :     0.093308
      px      :     0.067659
      py      :     0.012865
      dz2     :     0.000387  d :     0.001457
      dxz     :     0.000192
      dyz     :     0.000201
      dx2y2   :     0.000338
      dxy     :     0.000339
 18 H s       :     0.958076  s :     0.958076
      pz      :     0.014691  p :     0.074829
      px      :     0.045127
      py      :     0.015011
      dz2     :     0.000522  d :     0.001446
      dxz     :     0.000282
      dyz     :     0.000108
      dx2y2   :     0.000212
      dxy     :     0.000322
 19 Cls       :     6.058239  s :     6.058239
      pz      :     3.852189  p :    11.478507
      px      :     3.942342
      py      :     3.683976
      dz2     :     0.002132  d :     0.023869
      dxz     :     0.000984
      dyz     :     0.005809
      dx2y2   :     0.007032
      dxy     :     0.007912
      f0      :     0.000096  f :     0.001258
      f+1     :     0.000019
      f-1     :     0.000221
      f+2     :     0.000176
      f-2     :     0.000039
      f+3     :     0.000260
      f-3     :     0.000446
 20 H s       :     1.211808  s :     1.211808
      pz      :     0.007418  p :    -0.017190
      px      :    -0.023565
      py      :    -0.001043
      dz2     :     0.000533  d :     0.000925
      dxz     :     0.000196
      dyz     :     0.000130
      dx2y2   :     0.000033
      dxy     :     0.000032
 21 H s       :     0.937922  s :     0.937922
      pz      :     0.020886  p :     0.055982
      px      :     0.039942
      py      :    -0.004845
      dz2     :     0.000175  d :     0.001435
      dxz     :     0.000537
      dyz     :     0.000633
      dx2y2   :     0.000047
      dxy     :     0.000044
 22 H s       :     0.923294  s :     0.923294
      pz      :    -0.002916  p :     0.058911
      px      :     0.016779
      py      :     0.045049
      dz2     :     0.000068  d :     0.001527
      dxz     :     0.000090
      dyz     :     0.000598
      dx2y2   :     0.000404
      dxy     :     0.000368


                     *******************************
                     * LOEWDIN POPULATION ANALYSIS *
                     *******************************

----------------------
LOEWDIN ATOMIC CHARGES
----------------------
   0 Zr:    0.351812
   1 C :   -0.062508
   2 C :   -0.051079
   3 C :   -0.068603
   4 H :    0.003265
   5 C :   -0.046690
   6 H :    0.003728
   7 C :   -0.056252
   8 H :    0.003816
   9 H :    0.004234
  10 C :   -0.050538
  11 C :   -0.061012
  12 C :   -0.047859
  13 H :   -0.002229
  14 C :   -0.064775
  15 H :    0.003128
  16 C :   -0.061407
  17 H :    0.006007
  18 H :    0.002010
  19 Cl:    0.211422
  20 H :   -0.016973
  21 H :   -0.002680
  22 H :    0.003186

-------------------------------
LOEWDIN REDUCED ORBITAL CHARGES
-------------------------------
  0 Zrs       :     1.805946  s :     1.805946
      pz      :     2.101939  p :     6.276959
      px      :     2.041512
      py      :     2.133507
      dz2     :     0.804550  d :     2.707421
      dxz     :     0.486895
      dyz     :     0.300558
      dx2y2   :     0.615282
      dxy     :     0.500135
      f0      :     0.097917  f :     0.628201
      f+1     :     0.053837
      f-1     :     0.051519
      f+2     :     0.090155
      f-2     :     0.051727
      f+3     :     0.171030
      f-3     :     0.112016
      g0      :     0.024062  g :     0.229661
      g+1     :     0.020793
      g-1     :     0.016598
      g+2     :     0.020631
      g-2     :     0.012043
      g+3     :     0.023028
      g-3     :     0.026772
      g+4     :     0.050664
      g-4     :     0.035072
  1 C s       :     2.640516  s :     2.640516
      pz      :     0.920837  p :     2.576299
      px      :     0.769034
      py      :     0.886428
      dz2     :     0.204210  d :     0.797139
      dxz     :     0.109938
      dyz     :     0.173012
      dx2y2   :     0.153150
      dxy     :     0.156829
      f0      :     0.005989  f :     0.048554
      f+1     :     0.003548
      f-1     :     0.013798
      f+2     :     0.009158
      f-2     :     0.008500
      f+3     :     0.004513
      f-3     :     0.003049
  2 C s       :     2.633464  s :     2.633464
      pz      :     0.901709  p :     2.587850
      px      :     0.796783
      py      :     0.889358
      dz2     :     0.216827  d :     0.781873
      dxz     :     0.155484
      dyz     :     0.183687
      dx2y2   :     0.113777
      dxy     :     0.112097
      f0      :     0.009082  f :     0.047892
      f+1     :     0.005405
      f-1     :     0.010177
      f+2     :     0.007726
      f-2     :     0.008702
      f+3     :     0.003831
      f-3     :     0.002968
  3 C s       :     2.638214  s :     2.638214
      pz      :     0.905451  p :     2.592558
      px      :     0.779192
      py      :     0.907915
      dz2     :     0.199456  d :     0.789988
      dxz     :     0.144900
      dyz     :     0.210904
      dx2y2   :     0.115567
      dxy     :     0.119161
      f0      :     0.008205  f :     0.047843
      f+1     :     0.005277
      f-1     :     0.014106
      f+2     :     0.006361
      f-2     :     0.005657
      f+3     :     0.004510
      f-3     :     0.003726
  4 H s       :     0.701183  s :     0.701183
      pz      :     0.064006  p :     0.266205
      px      :     0.089471
      py      :     0.112728
      dz2     :     0.003440  d :     0.029348
      dxz     :     0.001288
      dyz     :     0.007793
      dx2y2   :     0.008303
      dxy     :     0.008523
  5 C s       :     2.633272  s :     2.633272
      pz      :     0.905245  p :     2.583649
      px      :     0.789172
      py      :     0.889232
      dz2     :     0.164772  d :     0.781442
      dxz     :     0.128777
      dyz     :     0.224336
      dx2y2   :     0.124173
      dxy     :     0.139383
      f0      :     0.011555  f :     0.048327
      f+1     :     0.007509
      f-1     :     0.007718
      f+2     :     0.005675
      f-2     :     0.005812
      f+3     :     0.004878
      f-3     :     0.005181
  6 H s       :     0.700739  s :     0.700739
      pz      :     0.069559  p :     0.266287
      px      :     0.087743
      py      :     0.108985
      dz2     :     0.004178  d :     0.029246
      dxz     :     0.002423
      dyz     :     0.007599
      dx2y2   :     0.007573
      dxy     :     0.007474
  7 C s       :     2.637492  s :     2.637492
      pz      :     0.908976  p :     2.584265
      px      :     0.773915
      py      :     0.901374
      dz2     :     0.156362  d :     0.786042
      dxz     :     0.133730
      dyz     :     0.246195
      dx2y2   :     0.131697
      dxy     :     0.118059
      f0      :     0.010946  f :     0.048453
      f+1     :     0.007839
      f-1     :     0.010252
      f+2     :     0.004198
      f-2     :     0.004202
      f+3     :     0.004559
      f-3     :     0.006457
  8 H s       :     0.701847  s :     0.701847
      pz      :     0.103220  p :     0.265125
      px      :     0.087717
      py      :     0.074188
      dz2     :     0.009067  d :     0.029212
      dxz     :     0.007183
      dyz     :     0.008009
      dx2y2   :     0.002411
      dxy     :     0.002542
  9 H s       :     0.701587  s :     0.701587
      pz      :     0.095021  p :     0.265122
      px      :     0.077723
      py      :     0.092379
      dz2     :     0.007575  d :     0.029057
      dxz     :     0.004861
      dyz     :     0.008840
      dx2y2   :     0.003967
      dxy     :     0.003814
 10 C s       :     2.633131  s :     2.633131
      pz      :     0.900755  p :     2.586577
      px      :     0.797681
      py      :     0.888140
      dz2     :     0.224952  d :     0.782926
      dxz     :     0.158212
      dyz     :     0.174066
      dx2y2   :     0.112340
      dxy     :     0.113355
      f0      :     0.009778  f :     0.047905
      f+1     :     0.004458
      f-1     :     0.008903
      f+2     :     0.008716
      f-2     :     0.009976
      f+3     :     0.003711
      f-3     :     0.002363
 11 C s       :     2.640445  s :     2.640445
      pz      :     0.920455  p :     2.576474
      px      :     0.770183
      py      :     0.885835
      dz2     :     0.197867  d :     0.795583
      dxz     :     0.107953
      dyz     :     0.185423
      dx2y2   :     0.146006
      dxy     :     0.158334
      f0      :     0.007317  f :     0.048510
      f+1     :     0.003998
      f-1     :     0.012300
      f+2     :     0.009348
      f-2     :     0.007661
      f+3     :     0.004775
      f-3     :     0.003112
 12 C s       :     2.633390  s :     2.633390
      pz      :     0.905180  p :     2.586782
      px      :     0.793471
      py      :     0.888130
      dz2     :     0.176534  d :     0.779483
      dxz     :     0.121923
      dyz     :     0.205945
      dx2y2   :     0.132396
      dxy     :     0.142685
      f0      :     0.010676  f :     0.048204
      f+1     :     0.006197
      f-1     :     0.008275
      f+2     :     0.006269
      f-2     :     0.007516
      f+3     :     0.004398
      f-3     :     0.004873
 13 H s       :     0.703567  s :     0.703567
      pz      :     0.118628  p :     0.269516
      px      :     0.083280
      py      :     0.067608
      dz2     :     0.011363  d :     0.029146
      dxz     :     0.007925
      dyz     :     0.008611
      dx2y2   :     0.000604
      dxy     :     0.000643
 14 C s       :     2.638460  s :     2.638460
      pz      :     0.908833  p :     2.591534
      px      :     0.778618
      py      :     0.904083
      dz2     :     0.184422  d :     0.786952
      dxz     :     0.144510
      dyz     :     0.223662
      dx2y2   :     0.116025
      dxy     :     0.118333
      f0      :     0.008234  f :     0.047829
      f+1     :     0.006415
      f-1     :     0.014434
      f+2     :     0.005202
      f-2     :     0.004261
      f+3     :     0.004825
      f-3     :     0.004456
 15 H s       :     0.702365  s :     0.702365
      pz      :     0.108567  p :     0.265271
      px      :     0.086803
      py      :     0.069902
      dz2     :     0.009887  d :     0.029235
      dxz     :     0.007884
      dyz     :     0.008087
      dx2y2   :     0.001640
      dxy     :     0.001738
 16 C s       :     2.637969  s :     2.637969
      pz      :     0.909232  p :     2.583541
      px      :     0.772369
      py      :     0.901940
      dz2     :     0.158118  d :     0.791352
      dxz     :     0.143572
      dyz     :     0.245987
      dx2y2   :     0.129803
      dxy     :     0.113871
      f0      :     0.009745  f :     0.048546
      f+1     :     0.008396
      f-1     :     0.012014
      f+2     :     0.003315
      f-2     :     0.003913
      f+3     :     0.004576
      f-3     :     0.006587
 17 H s       :     0.701204  s :     0.701204
      pz      :     0.074754  p :     0.263599
      px      :     0.085969
      py      :     0.102875
      dz2     :     0.004870  d :     0.029190
      dxz     :     0.003217
      dyz     :     0.007639
      dx2y2   :     0.006797
      dxy     :     0.006666
 18 H s       :     0.701100  s :     0.701100
      pz      :     0.088876  p :     0.267807
      px      :     0.079419
      py      :     0.099511
      dz2     :     0.006644  d :     0.029084
      dxz     :     0.004006
      dyz     :     0.008774
      dx2y2   :     0.004927
      dxy     :     0.004733
 19 Cls       :     5.609762  s :     5.609762
      pz      :     3.690150  p :    11.050019
      px      :     3.722385
      py      :     3.637484
      dz2     :     0.018598  d :     0.126974
      dxz     :     0.006375
      dyz     :     0.014919
      dx2y2   :     0.041817
      dxy     :     0.045265
      f0      :     0.000080  f :     0.001823
      f+1     :     0.000036
      f-1     :     0.000368
      f+2     :     0.000145
      f-2     :     0.000048
      f+3     :     0.000420
      f-3     :     0.000726
 20 H s       :     0.843450  s :     0.843450
      pz      :     0.082967  p :     0.167280
      px      :     0.054850
      py      :     0.029462
      dz2     :     0.004322  d :     0.006244
      dxz     :     0.001063
      dyz     :     0.000697
      dx2y2   :     0.000101
      dxy     :     0.000061
 21 H s       :     0.703429  s :     0.703429
      pz      :     0.120451  p :     0.270092
      px      :     0.085197
      py      :     0.064444
      dz2     :     0.011686  d :     0.029160
      dxz     :     0.008257
      dyz     :     0.008449
      dx2y2   :     0.000377
      dxy     :     0.000391
 22 H s       :     0.700735  s :     0.700735
      pz      :     0.061849  p :     0.266713
      px      :     0.091010
      py      :     0.113854
      dz2     :     0.003132  d :     0.029367
      dxz     :     0.001108
      dyz     :     0.007607
      dx2y2   :     0.008656
      dxy     :     0.008864


                      *****************************
                      * MAYER POPULATION ANALYSIS *
                      *****************************

  NA   - Mulliken gross atomic population
  ZA   - Total nuclear charge
  QA   - Mulliken gross atomic charge
  VA   - Mayer's total valence
  BVA  - Mayer's bonded valence
  FA   - Mayer's free valence

  ATOM       NA         ZA         QA         VA         BVA        FA
  0 Zr    12.0824    12.0000    -0.0824     5.9738     5.9738     0.0000
  1 C      5.8358     6.0000     0.1642     3.3531     3.3531     0.0000
  2 C      5.8322     6.0000     0.1678     3.2935     3.2935     0.0000
  3 C      5.9238     6.0000     0.0762     3.3428     3.3428     0.0000
  4 H      0.9838     1.0000     0.0162     1.0759     1.0759     0.0000
  5 C      6.0811     6.0000    -0.0811     3.4947     3.4947     0.0000
  6 H      1.0119     1.0000    -0.0119     1.2037     1.2037     0.0000
  7 C      5.8084     6.0000     0.1916     3.3371     3.3371     0.0000
  8 H      1.0475     1.0000    -0.0475     1.1625     1.1625     0.0000
  9 H      1.0529     1.0000    -0.0529     1.1917     1.1917     0.0000
 10 C      5.7684     6.0000     0.2316     3.1512     3.1512     0.0000
 11 C      5.8802     6.0000     0.1198     3.4144     3.4144     0.0000
 12 C      6.1039     6.0000    -0.1039     3.4221     3.4221     0.0000
 13 H      1.0049     1.0000    -0.0049     1.1048     1.1048     0.0000
 14 C      5.9432     6.0000     0.0568     3.4356     3.4356     0.0000
 15 H      1.0077     1.0000    -0.0077     1.1167     1.1167     0.0000
 16 C      5.8276     6.0000     0.1724     3.3221     3.3221    -0.0000
 17 H      1.0335     1.0000    -0.0335     1.2084     1.2084    -0.0000
 18 H      1.0344     1.0000    -0.0344     1.1772     1.1772    -0.0000
 19 Cl    17.5619    17.0000    -0.5619     0.7845     0.7845    -0.0000
 20 H      1.1955     1.0000    -0.1955     0.8630     0.8630     0.0000
 21 H      0.9953     1.0000     0.0047     1.0704     1.0704     0.0000
 22 H      0.9837     1.0000     0.0163     1.0746     1.0746     0.0000

  Mayer bond orders larger than 0.100000
B(  0-Zr,  1-C ) :   0.3255 B(  0-Zr,  2-C ) :   0.3394 B(  0-Zr,  3-C ) :   0.4111 
B(  0-Zr,  5-C ) :   0.4707 B(  0-Zr,  7-C ) :   0.3323 B(  0-Zr, 10-C ) :   0.2800 
B(  0-Zr, 11-C ) :   0.3092 B(  0-Zr, 12-C ) :   0.5258 B(  0-Zr, 14-C ) :   0.4125 
B(  0-Zr, 16-C ) :   0.3443 B(  0-Zr, 19-Cl) :   0.7253 B(  0-Zr, 20-H ) :   0.9055 
B(  1-C ,  2-C ) :   1.0545 B(  1-C ,  3-C ) :   1.0190 B(  1-C , 21-H ) :   1.0596 
B(  2-C ,  4-H ) :   1.0823 B(  2-C ,  5-C ) :   0.9631 B(  3-C ,  6-H ) :   1.0517 
B(  3-C ,  7-C ) :   1.1153 B(  5-C ,  7-C ) :   0.9952 B(  5-C ,  8-H ) :   1.1834 
B(  5-C , 12-C ) :   0.1328 B(  7-C ,  9-H ) :   1.0681 B( 10-C , 11-C ) :   1.0305 
B( 10-C , 12-C ) :   0.9488 B( 10-C , 22-H ) :   1.0988 B( 11-C , 13-H ) :   1.0820 
B( 11-C , 14-C ) :   1.0640 B( 12-C , 15-H ) :   1.1554 B( 12-C , 16-C ) :   0.9489 
B( 14-C , 16-C ) :   1.1360 B( 14-C , 17-H ) :   1.0560 B( 16-C , 18-H ) :   1.0746 


-------
TIMINGS
-------

Total SCF time: 0 days 0 hours 0 min 20 sec 

Total time                  ....      20.877 sec
Sum of individual times     ....      20.225 sec  ( 96.9%)

Fock matrix formation       ....      14.674 sec  ( 70.3%)
  Split-RI-J                ....       4.600 sec  ( 31.4% of F)
  XC integration            ....       9.682 sec  ( 66.0% of F)
    Basis function eval.    ....       0.844 sec  (  8.7% of XC)
    Density eval.           ....       3.037 sec  ( 31.4% of XC)
    XC-Functional eval.     ....       0.114 sec  (  1.2% of XC)
    XC-Potential eval.      ....       5.141 sec  ( 53.1% of XC)
Diagonalization             ....       1.440 sec  (  6.9%)
Density matrix formation    ....       0.106 sec  (  0.5%)
Population analysis         ....       0.089 sec  (  0.4%)
Initial guess               ....       2.473 sec  ( 11.8%)
Orbital Transformation      ....       0.000 sec  (  0.0%)
Orbital Orthonormalization  ....       0.000 sec  (  0.0%)
DIIS solution               ....       0.927 sec  (  4.4%)
Grid generation             ....       0.516 sec  (  2.5%)


-------------------------------------------------------------------------------
                          DFT DISPERSION CORRECTION                            
                                                                               
                              DFTD3 V3.1  Rev 1                                
                          USING Becke-Johnson damping                          
-------------------------------------------------------------------------------
The TPSS functional is recognized
Active option DFTDOPT                   ...         4   

molecular C6(AA) [au] = 8519.288746 


            DFT-D V3
 parameters
 s6 scaling factor         :     1.0000 
 a1 scaling factor         :     0.4535 
 s8 scaling factor         :     1.9435 
 a2 scaling factor         :     4.4752 
 ad hoc parameters k1-k3   :    16.0000     1.3333    -4.0000 

 Edisp/kcal,au: -25.513975351181  -0.040659103462 
 E6   /kcal   : -11.377311877 
 E8   /kcal   : -14.136663474 
 % E8         :  55.407529715 

-------------------------   ----------------
Dispersion correction           -0.040659103
-------------------------   ----------------


-------------------------   --------------------
FINAL SINGLE POINT ENERGY      -895.381330124608
-------------------------   --------------------


                            ***************************************
                            *     ORCA property calculations      *
                            ***************************************

                                    ---------------------
                                    Active property flags
                                    ---------------------
   (+) Dipole Moment


------------------------------------------------------------------------------
                       ORCA ELECTRIC PROPERTIES CALCULATION
------------------------------------------------------------------------------

Dipole Moment Calculation                       ... on
Quadrupole Moment Calculation                   ... off
Polarizability Calculation                      ... off
GBWName                                         ... TMB01_R1.gbw
Electron density file                           ... TMB01_R1.scfp
The origin for moment calculation is the CENTER OF MASS  = ( 0.000249,  0.084418 -0.012618)

-------------
DIPOLE MOMENT
-------------
                                X             Y             Z
Electronic contribution:     -0.01626      13.14861     -12.56271
Nuclear contribution   :      0.01059     -14.41688      13.08524
                        -----------------------------------------
Total Dipole Moment    :     -0.00567      -1.26827       0.52253
                        -----------------------------------------
Magnitude (a.u.)       :      1.37171
Magnitude (Debye)      :      3.48660



--------------------
Rotational spectrum 
--------------------
 
Rotational constants in cm-1:     0.033538     0.025044     0.018059 
Rotational constants in MHz :  1005.445647   750.792016   541.402542 

 Dipole components along the rotational axes: 
x,y,z [a.u.] :    -0.006158    -1.269485     0.519564 
x,y,z [Debye]:    -0.015651    -3.226774     1.320628 

 

Timings for individual modules:

Sum of individual times         ...       23.988 sec (=   0.400 min)
GTO integral calculation        ...        2.753 sec (=   0.046 min)  11.5 %
SCF iterations                  ...       21.236 sec (=   0.354 min)  88.5 %
                             ****ORCA TERMINATED NORMALLY****
TOTAL RUN TIME: 0 days 0 hours 0 minutes 24 seconds 587 msec
