
                                 *****************
                                 * O   R   C   A *
                                 *****************

           --- An Ab Initio, DFT and Semiempirical electronic structure package ---

                  #######################################################
                  #                        -***-                        #
                  #          Department of theory and spectroscopy      #
                  #               Directorship: Frank Neese             #
                  #        Max Planck Institute fuer Kohlenforschung    #
                  #                Kaiser Wilhelm Platz 1               #
                  #                 D-45470 Muelheim/Ruhr               #
                  #                      Germany                        #
                  #                                                     #
                  #                  All rights reserved                #
                  #                        -***-                        #
                  #######################################################


                         Program Version 4.2.0 -  RELEASE  -


 With contributions from (in alphabetic order):
   Daniel Aravena         : Magnetic Suceptibility
   Michael Atanasov       : Ab Initio Ligand Field Theory (pilot matlab implementation)
   Alexander A. Auer      : GIAO ZORA, VPT2
   Ute Becker             : Parallelization
   Giovanni Bistoni       : ED, misc. LED, open-shell LED, HFLED
   Martin Brehm           : Molecular dynamics
   Dmytro Bykov           : SCF Hessian
   Vijay G. Chilkuri      : MRCI spin determinant printing, contributions to CSF-ICE
   Dipayan Datta          : RHF DLPNO-CCSD density
   Achintya Kumar Dutta   : EOM-CC, STEOM-CC
   Dmitry Ganyushin       : Spin-Orbit,Spin-Spin,Magnetic field MRCI
   Miquel Garcia          : C-PCM Hessian, Gaussian charge scheme
   Yang Guo               : DLPNO-NEVPT2, CIM, IAO-localization
   Andreas Hansen         : Spin unrestricted coupled pair/coupled cluster methods
   Benjamin Helmich-Paris : CASSCF linear response (MC-RPA)
   Lee Huntington         : MR-EOM, pCC
   Robert Izsak           : Overlap fitted RIJCOSX, COSX-SCS-MP3, EOM
   Christian Kollmar      : KDIIS, OOCD, Brueckner-CCSD(T), CCSD density
   Simone Kossmann        : Meta GGA functionals, TD-DFT gradient, OOMP2, MP2 Hessian
   Martin Krupicka        : AUTO-CI
   Lucas Lang             : DCDCAS
   Dagmar Lenk            : GEPOL surface, SMD
   Dimitrios Liakos       : Extrapolation schemes; Compound Job, initial MDCI parallelization
   Dimitrios Manganas     : Further ROCIS development; embedding schemes
   Dimitrios Pantazis     : SARC Basis sets
   Taras Petrenko         : DFT Hessian,TD-DFT gradient, ASA, ECA, R-Raman, ABS, FL, XAS/XES, NRVS
   Peter Pinski           : DLPNO-MP2, DLPNO-MP2 Gradient
   Christoph Reimann      : Effective Core Potentials
   Marius Retegan         : Local ZFS, SOC
   Christoph Riplinger    : Optimizer, TS searches, QM/MM, DLPNO-CCSD(T), (RO)-DLPNO pert. Triples
   Tobias Risthaus        : Range-separated hybrids, TD-DFT gradient, RPA, STAB
   Michael Roemelt        : Original ROCIS implementation
   Masaaki Saitow         : Open-shell DLPNO-CCSD energy and density
   Barbara Sandhoefer     : DKH picture change effects
   Avijit Sen             : IP-ROCIS
   Kantharuban Sivalingam : CASSCF convergence, NEVPT2, FIC-MRCI
   Bernardo de Souza      : ESD, SOC TD-DFT
   Georgi Stoychev        : AutoAux, RI-MP2 NMR
   Willem Van den Heuvel  : Paramagnetic NMR
   Boris Wezisla          : Elementary symmetry handling
   Frank Wennmohs         : Technical directorship


 We gratefully acknowledge several colleagues who have allowed us to
 interface, adapt or use parts of their codes:
   Stefan Grimme, W. Hujo, H. Kruse,             : VdW corrections, initial TS optimization,
                  C. Bannwarth                     DFT functionals, gCP, sTDA/sTD-DF
   Ed Valeev, F. Pavosevic, A. Kumar             : LibInt (2-el integral package), F12 methods
   Garnet Chan, S. Sharma, J. Yang, R. Olivares  : DMRG
   Ulf Ekstrom                                   : XCFun DFT Library
   Mihaly Kallay                                 : mrcc  (arbitrary order and MRCC methods)
   Andreas Klamt, Michael Diedenhofen            : otool_cosmo (COSMO solvation model)
   Jiri Pittner, Ondrej Demel                    : Mk-CCSD
   Frank Weinhold                                : gennbo (NPA and NBO analysis)
   Christopher J. Cramer and Donald G. Truhlar   : smd solvation model
   Lars Goerigk                                  : TD-DFT with DH, B97 family of functionals
   V. Asgeirsson, H. Jonsson                     : NEB implementation
   FAccTs GmbH                                   : IRC, NEB, NEB-TS, Multilevel, MM, QM/MM, CI optimization
   S Lehtola, MJT Oliveira, MAL Marques          : LibXC Library


 Your calculation uses the libint2 library for the computation of 2-el integrals
 For citations please refer to: http://libint.valeyev.net

 Your ORCA version has been built with support for libXC version: 4.2.3
 For citations please refer to: https://tddft.org/programs/libxc/

 This ORCA versions uses:
   CBLAS   interface :  Fast vector & matrix operations
   LAPACKE interface :  Fast linear algebra routines
   SCALAPACK package :  Parallel linear algebra routines


Your calculation utilizes the atom-pairwise dispersion correction
with the Becke-Johnson damping scheme (D3BJ)
Cite in your paper:
S.Grimme, S.Ehrlich, L.Goerigk, J Comput Chem, (2011), 32, 1456–1465 
S.Grimme, J.Antony, S.Ehrlich and H.Krieg, J.Chem.Phys., 132, (2010), 154104 
   

----- Orbital basis set information -----
Your calculation utilizes the basis: def2-TZVPPD
   F. Weigend and R. Ahlrichs, Phys. Chem. Chem. Phys. 7, 3297 (2005).
   D. Rappoport and F. Furche, J. Chem. Phys. 133 134105 (2010).

----- AuxJ basis set information -----
Your calculation utilizes the auxiliary basis: def2/J
   F. Weigend, Phys. Chem. Chem. Phys. 8, 1057 (2006).

cite the ECPs for Au [Def2-ECP] as follows:
Ce-Yb(ecp-28): M. Dolg, H. Stoll, H.Preuss, J. Chem. Phys., 1989, 90, 1730-1734.
Y-Cd(ecp-28), Hf-Hg(ecp-46): D. Andrae,U. Haeussermann, M. Dolg, H. Stoll, H. Preuss, Theor. Chim. Acta, 1990, 77, 123-141.
In-Sb(ecp-28), Tl-Bi(ecp-46): B. Metz, H. Stoll, M. Dolg, J. Chem. Phys., 2000, 113, 2563-2569.
Te-Xe(ecp-28), Po-Rn(ecp-46): K. A. Peterson, D. Figgen, E. Goll, H. Stoll, M. Dolg, J. Chem. Phys., 2003, 119, 11113-11123.
Rb(ecp-28), Cs(ecp-46): T. Leininger, A. Nicklass, W. Kuechle, H. Stoll, M. Dolg, A. Bergner, Chem. Phys. Lett., 1996, 255, 274-280.
Sr(ecp-28), Ba(ecp-46): M. Kaupp, P. V. Schleyer, H. Stoll and H. Preuss, J. Chem. Phys., 1991, 94, 1360-1366.
La(ecp-46): M. Dolg, H. Stoll, A. Savin, H. Preuss, Theor. Chim. Acta, 1989, 75, 173-194.
Lu(ecp-28): X. Cao, M. Dolg, J. Chem. Phys., 2001, 115, 7348-7355.

ECP parameters for Au [Def2-ECP] have been obtained from:
TURBOMOLE (7.0.2)

================================================================================
                                        WARNINGS
                       Please study these warnings very carefully!
================================================================================


INFO   : the flag for use of LIBINT has been found!

================================================================================
                                       INPUT FILE
================================================================================
NAME = TMB29_T1.in
|  1> #
|  2> # TMB29_T1 TPSS-D3BJ/Def2-TZVPPD
|  3> #
|  4> ! tpss d3bj def2-tzvppd def2/j grid4 nofinalgrid
|  5> 
|  6> *xyz 1 1
|  7> C        0.302195   -1.452011   -0.105192 
|  8> C        1.172851   -0.582511    0.135564 
|  9> C        0.213900   -2.914548   -0.330337 
| 10> H        1.214756   -3.345744   -0.317276 
| 11> H       -0.388020   -3.382295    0.449588 
| 12> H       -0.265099   -3.130327   -1.285361 
| 13> C        1.829635    0.694580    0.494281 
| 14> O        3.171960    0.697894   -0.020842 
| 15> C        3.732653   -0.510299   -0.087290 
| 16> O        3.070225   -1.500320    0.142290 
| 17> C        1.080449    1.884401   -0.190647 
| 18> O        0.030957    2.232541    0.278513 
| 19> C        1.716450    2.521139   -1.379228 
| 20> H        1.946637    1.771224   -2.139595 
| 21> H        1.044796    3.276244   -1.779459 
| 22> H        2.667103    2.978996   -1.097340 
| 23> C        5.172060   -0.490501   -0.447138 
| 24> H        5.507658   -1.496958   -0.678577 
| 25> H        5.341426    0.179166   -1.290238 
| 26> H        5.741456   -0.101237    0.400021 
| 27> C        1.875471    0.903584    2.001010 
| 28> H        2.434564    1.811885    2.227294 
| 29> H        0.861108    1.010944    2.380408 
| 30> H        2.353249    0.052039    2.484190 
| 31> Au      -1.471331   -0.309724   -0.041930 
| 32> P       -3.515153    0.680562    0.009165 
| 33> H       -3.799713    1.607377   -1.007127 
| 34> H       -4.633094   -0.165367   -0.073799 
| 35> H       -3.823490    1.429925    1.156436 
| 36> *
| 37> 
| 38> %maxcore 5000
| 39> 
| 40> %pal
| 41> nprocs = 24
| 42> end
| 43> 
| 44> 
| 45>                          ****END OF INPUT****
================================================================================

                       ****************************
                       * Single Point Calculation *
                       ****************************

---------------------------------
CARTESIAN COORDINATES (ANGSTROEM)
---------------------------------
  C      0.302195   -1.452011   -0.105192
  C      1.172851   -0.582511    0.135564
  C      0.213900   -2.914548   -0.330337
  H      1.214756   -3.345744   -0.317276
  H     -0.388020   -3.382295    0.449588
  H     -0.265099   -3.130327   -1.285361
  C      1.829635    0.694580    0.494281
  O      3.171960    0.697894   -0.020842
  C      3.732653   -0.510299   -0.087290
  O      3.070225   -1.500320    0.142290
  C      1.080449    1.884401   -0.190647
  O      0.030957    2.232541    0.278513
  C      1.716450    2.521139   -1.379228
  H      1.946637    1.771224   -2.139595
  H      1.044796    3.276244   -1.779459
  H      2.667103    2.978996   -1.097340
  C      5.172060   -0.490501   -0.447138
  H      5.507658   -1.496958   -0.678577
  H      5.341426    0.179166   -1.290238
  H      5.741456   -0.101237    0.400021
  C      1.875471    0.903584    2.001010
  H      2.434564    1.811885    2.227294
  H      0.861108    1.010944    2.380408
  H      2.353249    0.052039    2.484190
  Au    -1.471331   -0.309724   -0.041930
  P     -3.515153    0.680562    0.009165
  H     -3.799713    1.607377   -1.007127
  H     -4.633094   -0.165367   -0.073799
  H     -3.823490    1.429925    1.156436

----------------------------
CARTESIAN COORDINATES (A.U.)
----------------------------
  NO LB      ZA    FRAG     MASS         X           Y           Z
   0 C     6.0000    0    12.011    0.571066   -2.743903   -0.198784
   1 C     6.0000    0    12.011    2.216367   -1.100786    0.256179
   2 C     6.0000    0    12.011    0.404212   -5.507698   -0.624246
   3 H     1.0000    0     1.008    2.295556   -6.322540   -0.599565
   4 H     1.0000    0     1.008   -0.733252   -6.391611    0.849598
   5 H     1.0000    0     1.008   -0.500965   -5.915461   -2.428980
   6 C     6.0000    0    12.011    3.457509    1.312566    0.934056
   7 O     8.0000    0    15.999    5.994136    1.318829   -0.039386
   8 C     6.0000    0    12.011    7.053692   -0.964325   -0.164954
   9 O     8.0000    0    15.999    5.801884   -2.835194    0.268889
  10 C     6.0000    0    12.011    2.041753    3.561002   -0.360271
  11 O     8.0000    0    15.999    0.058500    4.218891    0.526313
  12 C     6.0000    0    12.011    3.243620    4.764262   -2.606363
  13 H     1.0000    0     1.008    3.678611    3.347128   -4.043249
  14 H     1.0000    0     1.008    1.974378    6.191204   -3.362690
  15 H     1.0000    0     1.008    5.040094    5.629487   -2.073672
  16 C     6.0000    0    12.011    9.773777   -0.926913   -0.844968
  17 H     1.0000    0     1.008   10.407965   -2.828841   -1.282325
  18 H     1.0000    0     1.008   10.093832    0.338575   -2.438196
  19 H     1.0000    0     1.008   10.849779   -0.191310    0.755930
  20 C     6.0000    0    12.011    3.544127    1.707526    3.781361
  21 H     1.0000    0     1.008    4.600659    3.423966    4.208976
  22 H     1.0000    0     1.008    1.627258    1.910407    4.498319
  23 H     1.0000    0     1.008    4.446996    0.098339    4.694439
  24 Au   19.0000*   0   196.966   -2.780413   -0.585294   -0.079236
  25 P    15.0000    0    30.974   -6.642676    1.286076    0.017319
  26 H     1.0000    0     1.008   -7.180417    3.037502   -1.903194
  27 H     1.0000    0     1.008   -8.755279   -0.312498   -0.139460
  28 H     1.0000    0     1.008   -7.225349    2.702167    2.185347
* core charge reduced due to ECP

--------------------------------
INTERNAL COORDINATES (ANGSTROEM)
--------------------------------
 C      0   0   0     0.000000000000     0.00000000     0.00000000
 C      1   0   0     1.253808427102     0.00000000     0.00000000
 C      1   2   0     1.482396962497   139.00097393     0.00000000
 H      3   1   2     1.089868484209   109.50092642   357.00292483
 H      3   1   2     1.090586057143   110.32884093   117.19761608
 H      3   1   2     1.089986907911   110.76652575   235.99172996
 C      2   1   3     1.480204219365   162.35995816   190.89274753
 O      7   2   1     1.437775745153   109.23341235   200.96347184
 C      8   7   2     1.333612500767   114.09704630   329.37172948
 O      9   8   7     1.213119702266   120.02236199     7.41615220
 C      7   2   1     1.563994897633   109.73614328   317.69849477
 O     11   7   2     1.201143631405   117.90356884    76.01696176
 C     11   7   2     1.490857922877   118.01529358   255.64963101
 H     13  11   7     1.092481824509   110.58499397    54.19639245
 H     13  11   7     1.086962515500   109.06556554   175.94916979
 H     13  11   7     1.092169860142   110.15747824   296.74249284
 C      9   8   7     1.483837947876   114.06911022   187.65389595
 H     17   9   8     1.085884764224   109.82337738   191.42200465
 H     17   9   8     1.089934100230   110.27501485   313.91822715
 H     17   9   8     1.092436102384   108.80219067    71.53430249
 C      7   2   1     1.521846211137   111.82606944    80.16724023
 H     21   7   2     1.090321116876   109.59261985   175.51942332
 H     21   7   2     1.088302029665   109.30685440   294.75731039
 H     21   7   2     1.089432704075   110.18002932    54.93648296
 Au     1   2   3     2.110501396277   101.67950911   176.51125999
 P     25   1   2     2.271670184799   173.05592211   188.22990476
 H     26  25   1     1.404567501792   116.97824767   239.07176733
 H     26  25   1     1.404375654096   116.89051683   359.17332928
 H     26  25   1     1.404580848075   116.64428302   119.09984752

---------------------------
INTERNAL COORDINATES (A.U.)
---------------------------
 C      0   0   0     0.000000000000     0.00000000     0.00000000
 C      1   0   0     2.369354551625     0.00000000     0.00000000
 C      1   2   0     2.801324280875   139.00097393     0.00000000
 H      3   1   2     2.059552957148   109.50092642   357.00292483
 H      3   1   2     2.060908973473   110.32884093   117.19761608
 H      3   1   2     2.059776745512   110.76652575   235.99172996
 C      2   1   3     2.797180596875   162.35995816   190.89274753
 O      7   2   1     2.717002400334   109.23341235   200.96347184
 C      8   7   2     2.520162395223   114.09704630   329.37172948
 O      9   8   7     2.292464004946   120.02236199     7.41615220
 C      7   2   1     2.955522031376   109.73614328   317.69849477
 O     11   7   2     2.269832510858   117.90356884    76.01696176
 C     11   7   2     2.817313178825   118.01529358   255.64963101
 H     13  11   7     2.064491454609   110.58499397    54.19639245
 H     13  11   7     2.054061472133   109.06556554   175.94916979
 H     13  11   7     2.063901927391   110.15747824   296.74249284
 C      9   8   7     2.804047348605   114.06911022   187.65389595
 H     17   9   8     2.052024817381   109.82337738   191.42200465
 H     17   9   8     2.059676953457   110.27501485   313.91822715
 H     17   9   8     2.064405052315   108.80219067    71.53430249
 C      7   2   1     2.875872556995   111.82606944    80.16724023
 H     21   7   2     2.060408308927   109.59261985   175.51942332
 H     21   7   2     2.056592787058   109.30685440   294.75731039
 H     21   7   2     2.058729452040   110.18002932    54.93648296
 Au     1   2   3     3.988269644223   101.67950911   176.51125999
 P     25   1   2     4.292834515865   173.05592211   188.22990476
 H     26  25   1     2.654247914992   116.97824767   239.07176733
 H     26  25   1     2.653885375388   116.89051683   359.17332928
 H     26  25   1     2.654273135813   116.64428302   119.09984752

---------------------
BASIS SET INFORMATION
---------------------
There are 5 groups of distinct atoms

 Group   1 Type C   : 12s6p3d1f contracted to 6s3p3d1f pattern {621111/411/111/1}
 Group   2 Type H   : 5s3p1d contracted to 3s3p1d pattern {311/111/1}
 Group   3 Type O   : 12s7p3d1f contracted to 6s4p3d1f pattern {621111/4111/111/1}
 Group   4 Type Au  : 8s8p6d2f1g contracted to 6s5p3d2f1g pattern {311111/41111/411/11/1}
 Group   5 Type P   : 15s9p4d1f contracted to 6s5p4d1f pattern {732111/51111/1111/1}

Atom   0C    basis set group =>   1
Atom   1C    basis set group =>   1
Atom   2C    basis set group =>   1
Atom   3H    basis set group =>   2
Atom   4H    basis set group =>   2
Atom   5H    basis set group =>   2
Atom   6C    basis set group =>   1
Atom   7O    basis set group =>   3
Atom   8C    basis set group =>   1
Atom   9O    basis set group =>   3
Atom  10C    basis set group =>   1
Atom  11O    basis set group =>   3
Atom  12C    basis set group =>   1
Atom  13H    basis set group =>   2
Atom  14H    basis set group =>   2
Atom  15H    basis set group =>   2
Atom  16C    basis set group =>   1
Atom  17H    basis set group =>   2
Atom  18H    basis set group =>   2
Atom  19H    basis set group =>   2
Atom  20C    basis set group =>   1
Atom  21H    basis set group =>   2
Atom  22H    basis set group =>   2
Atom  23H    basis set group =>   2
Atom  24Au   basis set group =>   4
Atom  25P    basis set group =>   5
Atom  26H    basis set group =>   2
Atom  27H    basis set group =>   2
Atom  28H    basis set group =>   2
---------------------------------
AUXILIARY/J BASIS SET INFORMATION
---------------------------------
There are 5 groups of distinct atoms

 Group   1 Type C   : 12s5p4d2f1g contracted to 6s4p3d1f1g pattern {711111/2111/211/2/1}
 Group   2 Type H   : 5s2p1d contracted to 3s1p1d pattern {311/2/1}
 Group   3 Type O   : 12s5p4d2f1g contracted to 6s4p3d1f1g pattern {711111/2111/211/2/1}
 Group   4 Type Au  : 11s5p5d3f3g contracted to 8s5p5d2f3g pattern {41111111/11111/11111/21/111}
 Group   5 Type P   : 14s5p5d2f1g contracted to 8s4p3d1f1g pattern {71111111/2111/311/2/1}

Atom   0C    basis set group =>   1
Atom   1C    basis set group =>   1
Atom   2C    basis set group =>   1
Atom   3H    basis set group =>   2
Atom   4H    basis set group =>   2
Atom   5H    basis set group =>   2
Atom   6C    basis set group =>   1
Atom   7O    basis set group =>   3
Atom   8C    basis set group =>   1
Atom   9O    basis set group =>   3
Atom  10C    basis set group =>   1
Atom  11O    basis set group =>   3
Atom  12C    basis set group =>   1
Atom  13H    basis set group =>   2
Atom  14H    basis set group =>   2
Atom  15H    basis set group =>   2
Atom  16C    basis set group =>   1
Atom  17H    basis set group =>   2
Atom  18H    basis set group =>   2
Atom  19H    basis set group =>   2
Atom  20C    basis set group =>   1
Atom  21H    basis set group =>   2
Atom  22H    basis set group =>   2
Atom  23H    basis set group =>   2
Atom  24Au   basis set group =>   4
Atom  25P    basis set group =>   5
Atom  26H    basis set group =>   2
Atom  27H    basis set group =>   2
Atom  28H    basis set group =>   2
-------------------------
ECP PARAMETER INFORMATION
-------------------------

 Group 1, Type Au ECP Def2-ECP (replacing 60 core electrons, lmax=3)

Atom  24Au   ECP group =>   1



           ************************************************************
           *        Program running with 24 parallel MPI-processes    *
           *              working on a common directory               *
           ************************************************************
------------------------------------------------------------------------------
                           ORCA GTO INTEGRAL CALCULATION
                           -- RI-GTO INTEGRALS CHOSEN --
------------------------------------------------------------------------------

                         BASIS SET STATISTICS AND STARTUP INFO

Gaussian basis set:
 # of primitive gaussian shells          ...  456
 # of primitive gaussian functions       ... 1072
 # of contracted shells                  ...  297
 # of contracted basis functions         ...  815
 Highest angular momentum                ...    4
 Maximum contraction depth               ...    7
Auxiliary gaussian basis set:
 # of primitive gaussian shells          ...  462
 # of primitive gaussian functions       ... 1256
 # of contracted shells                  ...  295
 # of contracted aux-basis functions     ...  893
 Highest angular momentum                ...    4
 Maximum contraction depth               ...    7
Ratio of auxiliary to basis functions    ...  1.10
Integral package used                  ... LIBINT
 One Electron integrals                  
   ECP integrals                         ... done
 Ordering auxiliary basis shells         ... done
 Integral threshhold             Thresh  ...  1.000e-10
 Primitive cut-off               TCut    ...  1.000e-11
 Pre-screening matrix                    ... done
 Shell pair data                         ... 
 Ordering of the shell pairs             ... done (   0.007 sec) 36192 of 44253 pairs
 Determination of significant pairs      ... done (   0.000 sec)
 Creation of shell pair data             ... done (   0.003 sec)
 Storage of shell pair data              ... done (   0.012 sec)
 Shell pair data done in (   0.022 sec)
 Computing two index integrals           ... done
 Cholesky decomposition of the V-matrix  ... done


Timings:
 Total evaluation time                   ...   2.876 sec (  0.048 min)
 One electron matrix time                ...   2.440 sec (  0.041 min) = 84.9%
 Schwartz matrix evaluation time         ...   0.356 sec (  0.006 min) = 12.4%
 Two index repulsion integral time       ...   0.017 sec (  0.000 min) =  0.6%
 Cholesky decomposition of V             ...   0.014 sec (  0.000 min) =  0.5%
 Three index repulsion integral time     ...   0.000 sec (  0.000 min) =  0.0%



           ************************************************************
           *        Program running with 24 parallel MPI-processes    *
           *              working on a common directory               *
           ************************************************************
-------------------------------------------------------------------------------
                                 ORCA SCF
-------------------------------------------------------------------------------

------------
SCF SETTINGS
------------
Hamiltonian:
 Density Functional     Method          .... DFT(GTOs)
 Exchange Functional    Exchange        .... TPSS
 Correlation Functional Correlation     .... TPSS
 LDA part of GGA corr.  LDAOpt          .... PW91-LDA
 Gradients option       PostSCFGGA      .... off
   Density functional embedding theory  .... OFF
   NL short-range parameter             ....  5.000000
 RI-approximation to the Coulomb term is turned on
   Number of auxiliary basis functions  .... 893


General Settings:
 Integral files         IntName         .... TMB29_T1
 Hartree-Fock type      HFTyp           .... RHF
 Total Charge           Charge          ....    1
 Multiplicity           Mult            ....    1
 Number of Electrons    NEL             ....  126
 Basis Dimension        Dim             ....  815
 Nuclear Repulsion      ENuc            ....   1205.6353180124 Eh

Convergence Acceleration:
 DIIS                   CNVDIIS         .... on
   Start iteration      DIISMaxIt       ....    12
   Startup error        DIISStart       ....  0.200000
   # of expansion vecs  DIISMaxEq       ....     5
   Bias factor          DIISBfac        ....   1.050
   Max. coefficient     DIISMaxC        ....  10.000
 Newton-Raphson         CNVNR           .... off
 SOSCF                  CNVSOSCF        .... off
 Level Shifting         CNVShift        .... on
   Level shift para.    LevelShift      ....    0.2500
   Turn off err/grad.   ShiftErr        ....    0.0010
 Zerner damping         CNVZerner       .... off
 Static damping         CNVDamp         .... on
   Fraction old density DampFac         ....    0.7000
   Max. Damping (<1)    DampMax         ....    0.9800
   Min. Damping (>=0)   DampMin         ....    0.0000
   Turn off err/grad.   DampErr         ....    0.1000
 Fernandez-Rico         CNVRico         .... off

SCF Procedure:
 Maximum # iterations   MaxIter         ....   125
 SCF integral mode      SCFMode         .... Direct
   Integral package                     .... LIBINT
 Reset frequency        DirectResetFreq ....    20
 Integral Threshold     Thresh          ....  1.000e-10 Eh
 Primitive CutOff       TCut            ....  1.000e-11 Eh

Convergence Tolerance:
 Convergence Check Mode ConvCheckMode   .... Total+1el-Energy
 Convergence forced     ConvForced      .... 0
 Energy Change          TolE            ....  1.000e-06 Eh
 1-El. energy change                    ....  1.000e-03 Eh
 DIIS Error             TolErr          ....  1.000e-06


Diagonalization of the overlap matrix:
Smallest eigenvalue                        ... 3.384e-07
Time for diagonalization                   ...    0.127 sec
Threshold for overlap eigenvalues          ... 1.000e-08
Number of eigenvalues below threshold      ... 0
Time for construction of square roots      ...    0.083 sec
Total time needed                          ...    0.213 sec

-------------------
DFT GRID GENERATION
-------------------

General Integration Accuracy     IntAcc      ...  4.670
Radial Grid Type                 RadialGrid  ... Gauss-Chebyshev
Angular Grid (max. acc.)         AngularGrid ... Lebedev-302
Angular grid pruning method      GridPruning ... 3 (G Style)
Weight generation scheme         WeightScheme... Becke
Basis function cutoff            BFCut       ...    1.0000e-10
Integration weight cutoff        WCut        ...    1.0000e-14
Grids for H and He will be reduced by one unit

# of grid points (after initial pruning)     ... 143952 (   0.0 sec)
# of grid points (after weights+screening)   ... 128143 (   0.1 sec)
nearest neighbour list constructed           ...    0.0 sec
Grid point re-assignment to atoms done       ...    0.0 sec
Grid point division into batches done        ...    0.4 sec
Reduced shell lists constructed in    0.6 sec

Total number of grid points                  ...   128143
Total number of batches                      ...     2016
Average number of points per batch           ...       63
Average number of grid points per atom       ...     4419
Average number of shells per batch           ...   184.31 (62.06%)
Average number of basis functions per batch  ...   509.01 (62.46%)
Average number of large shells per batch     ...   143.99 (78.12%)
Average number of large basis fcns per batch ...   396.25 (77.85%)
Maximum spatial batch extension              ...   2.81,  2.92,  4.01 au
Average spatial batch extension              ...   0.05,  0.05,  0.06 au

Time for grid setup =    0.702 sec

------------------------------
INITIAL GUESS: MODEL POTENTIAL
------------------------------
Loading Hartree-Fock densities                     ... done
  calling /sw/apps/orca/orca_4_2_0_linux_x86-64_openmpi314/orca TMB29_T1_atom79.inp > TMB29_T1_atom79.out in order to generate an atomic fitting density for atom 24 (Au with ECP) on-the-fly... 
    atom 24 (Au), assumed electronic state with S=2: 1s2 2s2 2p6 3s2 3p6 4s2 3d10 4p6 5s2 4d10 5p6 6s1 4f14 5d10           ... done
Calculating cut-offs                               ... done
Setting up the integral package                    ... done
Initializing the effective Hamiltonian             ... done
Starting the Coulomb interaction                   ... done (   0.1 sec)
Reading the grid                                   ... done
Mapping shells                                     ... done
Starting the XC term evaluation                    ... done (   0.3 sec)
  promolecular density results
     # of electrons  =    186.994240953
     EX              =   -463.283305375
     EC              =     -8.497964771
     EX+EC           =   -471.781270145
Transforming the Hamiltonian                       ... done (   0.1 sec)
Diagonalizing the Hamiltonian                      ... done (   0.1 sec)
Back transforming the eigenvectors                 ... done (   0.0 sec)
Now organizing SCF variables                       ... done
                      ------------------
                      INITIAL GUESS DONE (   2.4 sec)
                      ------------------
--------------
SCF ITERATIONS
--------------
ITER       Energy         Delta-E        Max-DP      RMS-DP      [F,P]     Damp
               ***  Starting incremental Fock matrix formation  ***
  0  -1054.4088542993   0.000000000000 6.75167766  0.01627840  0.5709479 0.7000
  1  -1054.6248101897  -0.215955890401 4.73273052  0.01133094  0.3916187 0.7000
  2  -1054.6911705875  -0.066360397831 3.03668392  0.00726860  0.2690678 0.7000
                               ***Turning on DIIS***
  3  -1054.7378922351  -0.046721647616 1.87488427  0.00449457  0.1869853 0.7000
  4  -1054.7715010215  -0.033608786343 1.00882460  0.00240570  0.1306766 0.7000
  5  -1054.7948740674  -0.023373045962 1.83082922  0.00445758  0.0912242 0.0000
  6  -1054.8491154213  -0.054241353834 0.06808081  0.00023491  0.0056397 0.0000
  7  -1054.8492112517  -0.000095830451 0.05313398  0.00022112  0.0024169 0.0000
  8  -1054.8492293832  -0.000018131468 0.24743981  0.00046203  0.0009854 0.0000
  9  -1054.8492319276  -0.000002544404 0.10757715  0.00032170  0.0007519 0.0000
 10  -1054.8492331162  -0.000001188636 0.36235341  0.00091001  0.0003519 0.0000
 11  -1054.8492333967  -0.000000280444 0.06900620  0.00020167  0.0001824 0.0000
                 **** Energy Check signals convergence ****

               *****************************************************
               *                     SUCCESS                       *
               *           SCF CONVERGED AFTER  12 CYCLES          *
               *****************************************************


----------------
TOTAL SCF ENERGY
----------------

Total Energy       :        -1054.84923348 Eh          -28703.90692 eV

Components:
Nuclear Repulsion  :         1205.63531801 Eh           32807.00488 eV
Electronic Energy  :        -2260.48455149 Eh          -61510.91180 eV
One Electron Energy:        -3876.24339156 Eh         -105477.94508 eV
Two Electron Energy:         1615.75884007 Eh           43967.03328 eV

Virial components:
Potential Energy   :        -2016.61693624 Eh          -54874.93662 eV
Kinetic Energy     :          961.76770276 Eh           26171.02970 eV
Virial Ratio       :            2.09678172


DFT components:
N(Alpha)           :       62.999969958395 electrons
N(Beta)            :       62.999969958395 electrons
N(Total)           :      125.999939916790 electrons
E(X)               :     -111.778385751246 Eh       
E(C)               :       -4.459794067366 Eh       
E(XC)              :     -116.238179818612 Eh       
DFET-embed. en.    :        0.000000000000 Eh       

---------------
SCF CONVERGENCE
---------------

  Last Energy change         ...   -8.2582e-08  Tolerance :   1.0000e-06
  Last MAX-Density change    ...    8.1639e-02  Tolerance :   1.0000e-05
  Last RMS-Density change    ...    2.0128e-04  Tolerance :   1.0000e-06
  Last DIIS Error            ...    6.1592e-05  Tolerance :   1.0000e-06

             **** THE GBW FILE WAS UPDATED (TMB29_T1.gbw) ****
             **** DENSITY FILE WAS UPDATED (TMB29_T1.scfp) ****
             **** ENERGY FILE WAS UPDATED (TMB29_T1.en.tmp) ****
             **** THE GBW FILE WAS UPDATED (TMB29_T1.gbw) ****
             **** DENSITY FILE WAS UPDATED (TMB29_T1.scfp) ****
----------------
ORBITAL ENERGIES
----------------

  NO   OCC          E(Eh)            E(eV) 
   0   2.0000     -76.771487     -2089.0584 
   1   2.0000     -19.083136      -519.2785 
   2   2.0000     -19.038318      -518.0590 
   3   2.0000     -19.019594      -517.5495 
   4   2.0000     -10.260399      -279.1997 
   5   2.0000     -10.226488      -278.2769 
   6   2.0000     -10.217425      -278.0303 
   7   2.0000     -10.180405      -277.0229 
   8   2.0000     -10.146405      -276.0977 
   9   2.0000     -10.126584      -275.5584 
  10   2.0000     -10.122448      -275.4458 
  11   2.0000     -10.118331      -275.3338 
  12   2.0000     -10.117222      -275.3036 
  13   2.0000      -6.547977      -178.1795 
  14   2.0000      -4.724841      -128.5695 
  15   2.0000      -4.724816      -128.5688 
  16   2.0000      -4.723235      -128.5258 
  17   2.0000      -4.183539      -113.8399 
  18   2.0000      -2.403485       -65.4021 
  19   2.0000      -2.383498       -64.8583 
  20   2.0000      -2.383118       -64.8479 
  21   2.0000      -1.206809       -32.8389 
  22   2.0000      -1.128466       -30.7071 
  23   2.0000      -1.110067       -30.2065 
  24   2.0000      -0.917555       -24.9679 
  25   2.0000      -0.868786       -23.6409 
  26   2.0000      -0.830542       -22.6002 
  27   2.0000      -0.825864       -22.4729 
  28   2.0000      -0.786060       -21.3898 
  29   2.0000      -0.772763       -21.0280 
  30   2.0000      -0.746641       -20.3171 
  31   2.0000      -0.694593       -18.9008 
  32   2.0000      -0.663927       -18.0664 
  33   2.0000      -0.608474       -16.5574 
  34   2.0000      -0.592496       -16.1226 
  35   2.0000      -0.584747       -15.9118 
  36   2.0000      -0.565380       -15.3848 
  37   2.0000      -0.556137       -15.1333 
  38   2.0000      -0.547135       -14.8883 
  39   2.0000      -0.537813       -14.6346 
  40   2.0000      -0.531149       -14.4533 
  41   2.0000      -0.530265       -14.4292 
  42   2.0000      -0.527677       -14.3588 
  43   2.0000      -0.518582       -14.1113 
  44   2.0000      -0.515614       -14.0306 
  45   2.0000      -0.503864       -13.7108 
  46   2.0000      -0.503623       -13.7043 
  47   2.0000      -0.500745       -13.6260 
  48   2.0000      -0.495751       -13.4901 
  49   2.0000      -0.481314       -13.0972 
  50   2.0000      -0.475678       -12.9439 
  51   2.0000      -0.470772       -12.8104 
  52   2.0000      -0.460141       -12.5211 
  53   2.0000      -0.441590       -12.0163 
  54   2.0000      -0.437517       -11.9054 
  55   2.0000      -0.427333       -11.6283 
  56   2.0000      -0.426634       -11.6093 
  57   2.0000      -0.409366       -11.1394 
  58   2.0000      -0.406917       -11.0728 
  59   2.0000      -0.392935       -10.6923 
  60   2.0000      -0.381736       -10.3876 
  61   2.0000      -0.369143       -10.0449 
  62   2.0000      -0.352020        -9.5790 
  63   0.0000      -0.223529        -6.0825 
  64   0.0000      -0.195697        -5.3252 
  65   0.0000      -0.177861        -4.8398 
  66   0.0000      -0.174019        -4.7353 
  67   0.0000      -0.155879        -4.2417 
  68   0.0000      -0.137757        -3.7486 
  69   0.0000      -0.128135        -3.4867 
  70   0.0000      -0.113233        -3.0812 
  71   0.0000      -0.104394        -2.8407 
  72   0.0000      -0.103090        -2.8052 
  73   0.0000      -0.095242        -2.5917 
  74   0.0000      -0.082163        -2.2358 
  75   0.0000      -0.078711        -2.1418 
  76   0.0000      -0.075069        -2.0427 
  77   0.0000      -0.058020        -1.5788 
  78   0.0000      -0.055639        -1.5140 
  79   0.0000      -0.050271        -1.3679 
  80   0.0000      -0.049166        -1.3379 
  81   0.0000      -0.046312        -1.2602 
  82   0.0000      -0.044826        -1.2198 
  83   0.0000      -0.042879        -1.1668 
  84   0.0000      -0.037966        -1.0331 
  85   0.0000      -0.033881        -0.9220 
  86   0.0000      -0.028763        -0.7827 
  87   0.0000      -0.024207        -0.6587 
  88   0.0000      -0.020255        -0.5512 
  89   0.0000      -0.016757        -0.4560 
  90   0.0000      -0.009394        -0.2556 
  91   0.0000      -0.005866        -0.1596 
  92   0.0000      -0.003920        -0.1067 
  93   0.0000      -0.000565        -0.0154 
  94   0.0000       0.005828         0.1586 
  95   0.0000       0.011139         0.3031 
  96   0.0000       0.012337         0.3357 
  97   0.0000       0.016214         0.4412 
  98   0.0000       0.020299         0.5524 
  99   0.0000       0.023585         0.6418 
 100   0.0000       0.030287         0.8241 
 101   0.0000       0.037001         1.0068 
 102   0.0000       0.039671         1.0795 
 103   0.0000       0.040962         1.1146 
 104   0.0000       0.045741         1.2447 
 105   0.0000       0.052013         1.4154 
 106   0.0000       0.057323         1.5598 
 107   0.0000       0.059354         1.6151 
 108   0.0000       0.069329         1.8865 
 109   0.0000       0.072878         1.9831 
 110   0.0000       0.077956         2.1213 
 111   0.0000       0.083219         2.2645 
 112   0.0000       0.085999         2.3402 
 113   0.0000       0.087865         2.3909 
 114   0.0000       0.090323         2.4578 
 115   0.0000       0.096470         2.6251 
 116   0.0000       0.098520         2.6809 
 117   0.0000       0.100451         2.7334 
 118   0.0000       0.102934         2.8010 
 119   0.0000       0.110615         3.0100 
 120   0.0000       0.112430         3.0594 
 121   0.0000       0.113070         3.0768 
 122   0.0000       0.118888         3.2351 
 123   0.0000       0.120830         3.2880 
 124   0.0000       0.123752         3.3675 
 125   0.0000       0.126423         3.4401 
 126   0.0000       0.129365         3.5202 
 127   0.0000       0.131097         3.5673 
 128   0.0000       0.133709         3.6384 
 129   0.0000       0.135707         3.6928 
 130   0.0000       0.142318         3.8727 
 131   0.0000       0.143758         3.9119 
 132   0.0000       0.149507         4.0683 
 133   0.0000       0.150661         4.0997 
 134   0.0000       0.152359         4.1459 
 135   0.0000       0.155463         4.2304 
 136   0.0000       0.157638         4.2896 
 137   0.0000       0.158869         4.3230 
 138   0.0000       0.164329         4.4716 
 139   0.0000       0.169127         4.6022 
 140   0.0000       0.171877         4.6770 
 141   0.0000       0.173689         4.7263 
 142   0.0000       0.175222         4.7680 
 143   0.0000       0.177228         4.8226 
 144   0.0000       0.181563         4.9406 
 145   0.0000       0.186115         5.0644 
 146   0.0000       0.190552         5.1852 
 147   0.0000       0.193034         5.2527 
 148   0.0000       0.197291         5.3686 
 149   0.0000       0.198639         5.4052 
 150   0.0000       0.201811         5.4916 
 151   0.0000       0.206842         5.6284 
 152   0.0000       0.210216         5.7203 
 153   0.0000       0.213180         5.8009 
 154   0.0000       0.216942         5.9033 
 155   0.0000       0.217525         5.9191 
 156   0.0000       0.223511         6.0821 
 157   0.0000       0.226581         6.1656 
 158   0.0000       0.228926         6.2294 
 159   0.0000       0.232995         6.3401 
 160   0.0000       0.234071         6.3694 
 161   0.0000       0.237684         6.4677 
 162   0.0000       0.241521         6.5721 
 163   0.0000       0.245072         6.6687 
 164   0.0000       0.246307         6.7024 
 165   0.0000       0.246757         6.7146 
 166   0.0000       0.250542         6.8176 
 167   0.0000       0.253901         6.9090 
 168   0.0000       0.259526         7.0621 
 169   0.0000       0.262380         7.1397 
 170   0.0000       0.265174         7.2157 
 171   0.0000       0.269049         7.3212 
 172   0.0000       0.272667         7.4196 
 173   0.0000       0.279916         7.6169 
 174   0.0000       0.281930         7.6717 
 175   0.0000       0.283509         7.7147 
 176   0.0000       0.284462         7.7406 
 177   0.0000       0.289829         7.8866 
 178   0.0000       0.295111         8.0304 
 179   0.0000       0.296483         8.0677 
 180   0.0000       0.302811         8.2399 
 181   0.0000       0.305120         8.3027 
 182   0.0000       0.310322         8.4443 
 183   0.0000       0.311837         8.4855 
 184   0.0000       0.315302         8.5798 
 185   0.0000       0.319865         8.7040 
 186   0.0000       0.324217         8.8224 
 187   0.0000       0.328039         8.9264 
 188   0.0000       0.332748         9.0545 
 189   0.0000       0.335772         9.1368 
 190   0.0000       0.336814         9.1652 
 191   0.0000       0.340055         9.2534 
 192   0.0000       0.348692         9.4884 
 193   0.0000       0.351660         9.5691 
 194   0.0000       0.354574         9.6485 
 195   0.0000       0.356089         9.6897 
 196   0.0000       0.361211         9.8291 
 197   0.0000       0.364634         9.9222 
 198   0.0000       0.367871        10.0103 
 199   0.0000       0.371681        10.1140 
 200   0.0000       0.373685        10.1685 
 201   0.0000       0.376255        10.2384 
 202   0.0000       0.383480        10.4350 
 203   0.0000       0.387488        10.5441 
 204   0.0000       0.392027        10.6676 
 205   0.0000       0.395068        10.7503 
 206   0.0000       0.395887        10.7726 
 207   0.0000       0.400603        10.9010 
 208   0.0000       0.404029        10.9942 
 209   0.0000       0.406823        11.0702 
 210   0.0000       0.414202        11.2710 
 211   0.0000       0.418983        11.4011 
 212   0.0000       0.422945        11.5089 
 213   0.0000       0.426213        11.5978 
 214   0.0000       0.431428        11.7398 
 215   0.0000       0.431926        11.7533 
 216   0.0000       0.438290        11.9265 
 217   0.0000       0.443839        12.0775 
 218   0.0000       0.446474        12.1492 
 219   0.0000       0.448229        12.1969 
 220   0.0000       0.457522        12.4498 
 221   0.0000       0.459345        12.4994 
 222   0.0000       0.463963        12.6251 
 223   0.0000       0.468143        12.7388 
 224   0.0000       0.472537        12.8584 
 225   0.0000       0.475976        12.9520 
 226   0.0000       0.478540        13.0217 
 227   0.0000       0.483844        13.1661 
 228   0.0000       0.488224        13.2852 
 229   0.0000       0.493776        13.4363 
 230   0.0000       0.496160        13.5012 
 231   0.0000       0.503294        13.6953 
 232   0.0000       0.509307        13.8589 
 233   0.0000       0.512879        13.9561 
 234   0.0000       0.514692        14.0055 
 235   0.0000       0.521769        14.1981 
 236   0.0000       0.529380        14.4052 
 237   0.0000       0.532219        14.4824 
 238   0.0000       0.537435        14.6244 
 239   0.0000       0.542936        14.7740 
 240   0.0000       0.545852        14.8534 
 241   0.0000       0.551862        15.0169 
 242   0.0000       0.555579        15.1181 
 243   0.0000       0.557807        15.1787 
 244   0.0000       0.558630        15.2011 
 245   0.0000       0.562537        15.3074 
 246   0.0000       0.568819        15.4783 
 247   0.0000       0.573296        15.6002 
 248   0.0000       0.578706        15.7474 
 249   0.0000       0.579037        15.7564 
 250   0.0000       0.583963        15.8904 
 251   0.0000       0.587223        15.9792 
 252   0.0000       0.592408        16.1202 
 253   0.0000       0.595025        16.1915 
 254   0.0000       0.598439        16.2844 
 255   0.0000       0.600369        16.3369 
 256   0.0000       0.604712        16.4550 
 257   0.0000       0.607251        16.5241 
 258   0.0000       0.610011        16.5992 
 259   0.0000       0.614189        16.7129 
 260   0.0000       0.624972        17.0063 
 261   0.0000       0.628523        17.1030 
 262   0.0000       0.629990        17.1429 
 263   0.0000       0.635654        17.2970 
 264   0.0000       0.638438        17.3728 
 265   0.0000       0.641276        17.4500 
 266   0.0000       0.645163        17.5558 
 267   0.0000       0.649973        17.6867 
 268   0.0000       0.658725        17.9248 
 269   0.0000       0.659929        17.9576 
 270   0.0000       0.666870        18.1465 
 271   0.0000       0.674161        18.3448 
 272   0.0000       0.677926        18.4473 
 273   0.0000       0.682285        18.5659 
 274   0.0000       0.684170        18.6172 
 275   0.0000       0.690849        18.7989 
 276   0.0000       0.696573        18.9547 
 277   0.0000       0.699139        19.0245 
 278   0.0000       0.704810        19.1788 
 279   0.0000       0.706970        19.2376 
 280   0.0000       0.713951        19.4276 
 281   0.0000       0.719881        19.5890 
 282   0.0000       0.725269        19.7356 
 283   0.0000       0.729175        19.8419 
 284   0.0000       0.731193        19.8968 
 285   0.0000       0.736666        20.0457 
 286   0.0000       0.741670        20.1819 
 287   0.0000       0.751387        20.4463 
 288   0.0000       0.753243        20.4968 
 289   0.0000       0.755819        20.5669 
 290   0.0000       0.762179        20.7399 
 291   0.0000       0.772128        21.0107 
 292   0.0000       0.780458        21.2374 
 293   0.0000       0.784995        21.3608 
 294   0.0000       0.792788        21.5729 
 295   0.0000       0.802758        21.8441 
 296   0.0000       0.812819        22.1179 
 297   0.0000       0.821317        22.3492 
 298   0.0000       0.827896        22.5282 
 299   0.0000       0.831744        22.6329 
 300   0.0000       0.834012        22.6946 
 301   0.0000       0.838958        22.8292 
 302   0.0000       0.849662        23.1205 
 303   0.0000       0.856323        23.3017 
 304   0.0000       0.865472        23.5507 
 305   0.0000       0.871879        23.7250 
 306   0.0000       0.877143        23.8683 
 307   0.0000       0.880013        23.9464 
 308   0.0000       0.886409        24.1204 
 309   0.0000       0.890740        24.2383 
 310   0.0000       0.900840        24.5131 
 311   0.0000       0.901340        24.5267 
 312   0.0000       0.912632        24.8340 
 313   0.0000       0.914347        24.8806 
 314   0.0000       0.915299        24.9066 
 315   0.0000       0.939243        25.5581 
 316   0.0000       0.941971        25.6323 
 317   0.0000       0.944888        25.7117 
 318   0.0000       0.949416        25.8349 
 319   0.0000       0.956534        26.0286 
 320   0.0000       0.965504        26.2727 
 321   0.0000       0.971932        26.4476 
 322   0.0000       0.989661        26.9301 
 323   0.0000       0.997245        27.1364 
 324   0.0000       1.003010        27.2933 
 325   0.0000       1.014603        27.6088 
 326   0.0000       1.020066        27.7574 
 327   0.0000       1.021898        27.8073 
 328   0.0000       1.042199        28.3597 
 329   0.0000       1.043558        28.3967 
 330   0.0000       1.051167        28.6037 
 331   0.0000       1.052646        28.6440 
 332   0.0000       1.064726        28.9727 
 333   0.0000       1.068495        29.0752 
 334   0.0000       1.071714        29.1628 
 335   0.0000       1.079320        29.3698 
 336   0.0000       1.080010        29.3886 
 337   0.0000       1.086432        29.5633 
 338   0.0000       1.092265        29.7220 
 339   0.0000       1.098630        29.8953 
 340   0.0000       1.113261        30.2934 
 341   0.0000       1.120165        30.4812 
 342   0.0000       1.124230        30.5919 
 343   0.0000       1.129289        30.7295 
 344   0.0000       1.134572        30.8733 
 345   0.0000       1.137517        30.9534 
 346   0.0000       1.145797        31.1787 
 347   0.0000       1.153832        31.3974 
 348   0.0000       1.165284        31.7090 
 349   0.0000       1.170928        31.8626 
 350   0.0000       1.174191        31.9514 
 351   0.0000       1.176040        32.0017 
 352   0.0000       1.183680        32.2096 
 353   0.0000       1.185419        32.2569 
 354   0.0000       1.192614        32.4527 
 355   0.0000       1.196198        32.5502 
 356   0.0000       1.204096        32.7651 
 357   0.0000       1.211959        32.9791 
 358   0.0000       1.212197        32.9856 
 359   0.0000       1.220032        33.1988 
 360   0.0000       1.228329        33.4245 
 361   0.0000       1.232345        33.5338 
 362   0.0000       1.237310        33.6689 
 363   0.0000       1.244361        33.8608 
 364   0.0000       1.258589        34.2479 
 365   0.0000       1.263613        34.3847 
 366   0.0000       1.270640        34.5759 
 367   0.0000       1.274966        34.6936 
 368   0.0000       1.280916        34.8555 
 369   0.0000       1.292103        35.1599 
 370   0.0000       1.303498        35.4700 
 371   0.0000       1.324916        36.0528 
 372   0.0000       1.332618        36.2624 
 373   0.0000       1.335820        36.3495 
 374   0.0000       1.341040        36.4916 
 375   0.0000       1.346529        36.6409 
 376   0.0000       1.355700        36.8905 
 377   0.0000       1.361490        37.0480 
 378   0.0000       1.375930        37.4410 
 379   0.0000       1.377274        37.4775 
 380   0.0000       1.380138        37.5555 
 381   0.0000       1.392038        37.8793 
 382   0.0000       1.404147        38.2088 
 383   0.0000       1.420940        38.6657 
 384   0.0000       1.423973        38.7483 
 385   0.0000       1.435754        39.0688 
 386   0.0000       1.444161        39.2976 
 387   0.0000       1.446655        39.3655 
 388   0.0000       1.451182        39.4887 
 389   0.0000       1.457602        39.6634 
 390   0.0000       1.460372        39.7387 
 391   0.0000       1.470885        40.0248 
 392   0.0000       1.479855        40.2689 
 393   0.0000       1.489273        40.5252 
 394   0.0000       1.493698        40.6456 
 395   0.0000       1.497523        40.7497 
 396   0.0000       1.504111        40.9290 
 397   0.0000       1.510543        41.1040 
 398   0.0000       1.513831        41.1934 
 399   0.0000       1.519226        41.3402 
 400   0.0000       1.524977        41.4967 
 401   0.0000       1.525777        41.5185 
 402   0.0000       1.538967        41.8774 
 403   0.0000       1.547309        42.1044 
 404   0.0000       1.553055        42.2608 
 405   0.0000       1.555518        42.3278 
 406   0.0000       1.562489        42.5175 
 407   0.0000       1.567130        42.6438 
 408   0.0000       1.571568        42.7645 
 409   0.0000       1.576566        42.9005 
 410   0.0000       1.580536        43.0086 
 411   0.0000       1.590905        43.2907 
 412   0.0000       1.594471        43.3878 
 413   0.0000       1.606875        43.7253 
 414   0.0000       1.614648        43.9368 
 415   0.0000       1.622894        44.1612 
 416   0.0000       1.635520        44.5048 
 417   0.0000       1.648804        44.8662 
 418   0.0000       1.658308        45.1249 
 419   0.0000       1.672420        45.5088 
 420   0.0000       1.682709        45.7888 
 421   0.0000       1.702577        46.3295 
 422   0.0000       1.707679        46.4683 
 423   0.0000       1.731516        47.1169 
 424   0.0000       1.742396        47.4130 
 425   0.0000       1.750326        47.6288 
 426   0.0000       1.754013        47.7291 
 427   0.0000       1.768734        48.1297 
 428   0.0000       1.778989        48.4088 
 429   0.0000       1.790316        48.7170 
 430   0.0000       1.797915        48.9238 
 431   0.0000       1.807854        49.1942 
 432   0.0000       1.818261        49.4774 
 433   0.0000       1.829873        49.7934 
 434   0.0000       1.835326        49.9418 
 435   0.0000       1.848538        50.3013 
 436   0.0000       1.853220        50.4287 
 437   0.0000       1.879279        51.1378 
 438   0.0000       1.891933        51.4821 
 439   0.0000       1.905976        51.8642 
 440   0.0000       1.921167        52.2776 
 441   0.0000       1.926443        52.4212 
 442   0.0000       1.933861        52.6230 
 443   0.0000       1.957523        53.2669 
 444   0.0000       1.964448        53.4554 
 445   0.0000       1.979928        53.8766 
 446   0.0000       1.989423        54.1349 
 447   0.0000       1.997835        54.3638 
 448   0.0000       2.020858        54.9904 
 449   0.0000       2.030682        55.2577 
 450   0.0000       2.038010        55.4571 
 451   0.0000       2.050539        55.7980 
 452   0.0000       2.055272        55.9268 
 453   0.0000       2.080773        56.6207 
 454   0.0000       2.085602        56.7521 
 455   0.0000       2.103512        57.2395 
 456   0.0000       2.112920        57.4955 
 457   0.0000       2.134869        58.0927 
 458   0.0000       2.163232        58.8645 
 459   0.0000       2.185064        59.4586 
 460   0.0000       2.200239        59.8715 
 461   0.0000       2.204819        59.9962 
 462   0.0000       2.229975        60.6807 
 463   0.0000       2.259566        61.4859 
 464   0.0000       2.269726        61.7624 
 465   0.0000       2.298133        62.5354 
 466   0.0000       2.308730        62.8237 
 467   0.0000       2.345029        63.8115 
 468   0.0000       2.347114        63.8682 
 469   0.0000       2.364114        64.3308 
 470   0.0000       2.380059        64.7647 
 471   0.0000       2.392226        65.0958 
 472   0.0000       2.425962        66.0138 
 473   0.0000       2.439485        66.3818 
 474   0.0000       2.446727        66.5788 
 475   0.0000       2.467557        67.1456 
 476   0.0000       2.487629        67.6918 
 477   0.0000       2.497889        67.9710 
 478   0.0000       2.518305        68.5266 
 479   0.0000       2.539568        69.1052 
 480   0.0000       2.584338        70.3234 
 481   0.0000       2.602191        70.8092 
 482   0.0000       2.607732        70.9600 
 483   0.0000       2.621848        71.3441 
 484   0.0000       2.649488        72.0962 
 485   0.0000       2.671949        72.7074 
 486   0.0000       2.688829        73.1668 
 487   0.0000       2.696294        73.3699 
 488   0.0000       2.699942        73.4692 
 489   0.0000       2.708280        73.6960 
 490   0.0000       2.717800        73.9551 
 491   0.0000       2.720496        74.0285 
 492   0.0000       2.733254        74.3756 
 493   0.0000       2.737255        74.4845 
 494   0.0000       2.743546        74.6557 
 495   0.0000       2.756491        75.0079 
 496   0.0000       2.763411        75.1962 
 497   0.0000       2.771528        75.4171 
 498   0.0000       2.778865        75.6168 
 499   0.0000       2.785335        75.7928 
 500   0.0000       2.791327        75.9559 
 501   0.0000       2.796927        76.1083 
 502   0.0000       2.798367        76.1474 
 503   0.0000       2.807611        76.3990 
 504   0.0000       2.814777        76.5940 
 505   0.0000       2.826222        76.9054 
 506   0.0000       2.834126        77.1205 
 507   0.0000       2.854210        77.6670 
 508   0.0000       2.857548        77.7578 
 509   0.0000       2.869472        78.0823 
 510   0.0000       2.871934        78.1493 
 511   0.0000       2.888290        78.5944 
 512   0.0000       2.902684        78.9860 
 513   0.0000       2.921418        79.4958 
 514   0.0000       2.925485        79.6065 
 515   0.0000       2.927505        79.6614 
 516   0.0000       2.947601        80.2083 
 517   0.0000       2.960237        80.5521 
 518   0.0000       2.969345        80.8000 
 519   0.0000       2.979068        81.0646 
 520   0.0000       2.985033        81.2269 
 521   0.0000       2.990329        81.3710 
 522   0.0000       2.993605        81.4601 
 523   0.0000       3.003966        81.7421 
 524   0.0000       3.013504        82.0016 
 525   0.0000       3.022058        82.2344 
 526   0.0000       3.026429        82.3533 
 527   0.0000       3.037952        82.6669 
 528   0.0000       3.045145        82.8626 
 529   0.0000       3.053937        83.1019 
 530   0.0000       3.063367        83.3585 
 531   0.0000       3.073219        83.6265 
 532   0.0000       3.075393        83.6857 
 533   0.0000       3.077861        83.7529 
 534   0.0000       3.084690        83.9387 
 535   0.0000       3.089690        84.0747 
 536   0.0000       3.091496        84.1239 
 537   0.0000       3.112978        84.7084 
 538   0.0000       3.115241        84.7700 
 539   0.0000       3.131506        85.2126 
 540   0.0000       3.138485        85.4025 
 541   0.0000       3.144216        85.5585 
 542   0.0000       3.158121        85.9368 
 543   0.0000       3.165460        86.1365 
 544   0.0000       3.184286        86.6488 
 545   0.0000       3.199195        87.0545 
 546   0.0000       3.208248        87.3009 
 547   0.0000       3.216825        87.5343 
 548   0.0000       3.223137        87.7060 
 549   0.0000       3.235933        88.0542 
 550   0.0000       3.246133        88.3318 
 551   0.0000       3.248460        88.3951 
 552   0.0000       3.254752        88.5663 
 553   0.0000       3.265976        88.8717 
 554   0.0000       3.270931        89.0065 
 555   0.0000       3.275732        89.1372 
 556   0.0000       3.292441        89.5919 
 557   0.0000       3.294988        89.6612 
 558   0.0000       3.301016        89.8252 
 559   0.0000       3.309685        90.0611 
 560   0.0000       3.320378        90.3521 
 561   0.0000       3.323908        90.4481 
 562   0.0000       3.332839        90.6912 
 563   0.0000       3.344146        90.9988 
 564   0.0000       3.353712        91.2591 
 565   0.0000       3.371805        91.7515 
 566   0.0000       3.376171        91.8703 
 567   0.0000       3.384455        92.0957 
 568   0.0000       3.396707        92.4291 
 569   0.0000       3.403706        92.6196 
 570   0.0000       3.411236        92.8245 
 571   0.0000       3.419851        93.0589 
 572   0.0000       3.429370        93.3179 
 573   0.0000       3.444199        93.7214 
 574   0.0000       3.449425        93.8636 
 575   0.0000       3.452856        93.9570 
 576   0.0000       3.458482        94.1101 
 577   0.0000       3.463107        94.2359 
 578   0.0000       3.466540        94.3293 
 579   0.0000       3.472829        94.5005 
 580   0.0000       3.476280        94.5944 
 581   0.0000       3.489421        94.9520 
 582   0.0000       3.499992        95.2396 
 583   0.0000       3.505145        95.3799 
 584   0.0000       3.515860        95.6714 
 585   0.0000       3.523457        95.8781 
 586   0.0000       3.529436        96.0408 
 587   0.0000       3.530912        96.0810 
 588   0.0000       3.541549        96.3705 
 589   0.0000       3.554664        96.7273 
 590   0.0000       3.563345        96.9635 
 591   0.0000       3.569028        97.1182 
 592   0.0000       3.573522        97.2405 
 593   0.0000       3.591676        97.7345 
 594   0.0000       3.595057        97.8265 
 595   0.0000       3.610534        98.2476 
 596   0.0000       3.617660        98.4415 
 597   0.0000       3.628620        98.7398 
 598   0.0000       3.641301        99.0848 
 599   0.0000       3.666420        99.7684 
 600   0.0000       3.674910        99.9994 
 601   0.0000       3.682332       100.2013 
 602   0.0000       3.686991       100.3281 
 603   0.0000       3.698313       100.6362 
 604   0.0000       3.705551       100.8332 
 605   0.0000       3.712575       101.0243 
 606   0.0000       3.724042       101.3363 
 607   0.0000       3.737096       101.6915 
 608   0.0000       3.745000       101.9066 
 609   0.0000       3.753968       102.1507 
 610   0.0000       3.761946       102.3677 
 611   0.0000       3.785627       103.0122 
 612   0.0000       3.795944       103.2929 
 613   0.0000       3.812371       103.7399 
 614   0.0000       3.825247       104.0903 
 615   0.0000       3.837816       104.4323 
 616   0.0000       3.852955       104.8442 
 617   0.0000       3.864885       105.1689 
 618   0.0000       3.871069       105.3372 
 619   0.0000       3.872715       105.3819 
 620   0.0000       3.878333       105.5348 
 621   0.0000       3.881849       105.6305 
 622   0.0000       3.887803       105.7925 
 623   0.0000       3.910260       106.4036 
 624   0.0000       3.912584       106.4668 
 625   0.0000       3.923164       106.7547 
 626   0.0000       3.930378       106.9510 
 627   0.0000       3.935106       107.0797 
 628   0.0000       3.936634       107.1212 
 629   0.0000       3.942263       107.2744 
 630   0.0000       3.947931       107.4287 
 631   0.0000       3.955795       107.6427 
 632   0.0000       3.958720       107.7222 
 633   0.0000       3.966296       107.9284 
 634   0.0000       3.971864       108.0799 
 635   0.0000       3.975172       108.1699 
 636   0.0000       3.982583       108.3716 
 637   0.0000       3.994811       108.7043 
 638   0.0000       4.000545       108.8604 
 639   0.0000       4.004707       108.9736 
 640   0.0000       4.010642       109.1351 
 641   0.0000       4.013371       109.2094 
 642   0.0000       4.020733       109.4097 
 643   0.0000       4.031032       109.6900 
 644   0.0000       4.038757       109.9002 
 645   0.0000       4.049081       110.1811 
 646   0.0000       4.069060       110.7248 
 647   0.0000       4.076158       110.9179 
 648   0.0000       4.081054       111.0511 
 649   0.0000       4.085871       111.1822 
 650   0.0000       4.091379       111.3321 
 651   0.0000       4.102944       111.6468 
 652   0.0000       4.103550       111.6633 
 653   0.0000       4.110435       111.8506 
 654   0.0000       4.111585       111.8819 
 655   0.0000       4.114218       111.9536 
 656   0.0000       4.121460       112.1506 
 657   0.0000       4.131760       112.4309 
 658   0.0000       4.146007       112.8186 
 659   0.0000       4.150669       112.9454 
 660   0.0000       4.156001       113.0905 
 661   0.0000       4.163761       113.3017 
 662   0.0000       4.171009       113.4989 
 663   0.0000       4.195265       114.1590 
 664   0.0000       4.211869       114.6108 
 665   0.0000       4.219693       114.8237 
 666   0.0000       4.221433       114.8710 
 667   0.0000       4.227529       115.0369 
 668   0.0000       4.238997       115.3490 
 669   0.0000       4.259051       115.8947 
 670   0.0000       4.261459       115.9602 
 671   0.0000       4.278076       116.4124 
 672   0.0000       4.282813       116.5413 
 673   0.0000       4.310418       117.2924 
 674   0.0000       4.318761       117.5195 
 675   0.0000       4.343412       118.1903 
 676   0.0000       4.344346       118.2157 
 677   0.0000       4.366664       118.8230 
 678   0.0000       4.385134       119.3256 
 679   0.0000       4.400871       119.7538 
 680   0.0000       4.410986       120.0290 
 681   0.0000       4.425692       120.4292 
 682   0.0000       4.441857       120.8691 
 683   0.0000       4.462904       121.4418 
 684   0.0000       4.474871       121.7674 
 685   0.0000       4.491267       122.2136 
 686   0.0000       4.507562       122.6570 
 687   0.0000       4.535307       123.4120 
 688   0.0000       4.550318       123.8205 
 689   0.0000       4.570503       124.3697 
 690   0.0000       4.575836       124.5148 
 691   0.0000       4.638181       126.2113 
 692   0.0000       4.641365       126.2980 
 693   0.0000       4.667137       126.9993 
 694   0.0000       4.676265       127.2476 
 695   0.0000       4.692963       127.7020 
 696   0.0000       4.700286       127.9013 
 697   0.0000       4.714068       128.2763 
 698   0.0000       4.728722       128.6751 
 699   0.0000       4.736235       128.8795 
 700   0.0000       4.756847       129.4404 
 701   0.0000       4.762780       129.6018 
 702   0.0000       4.774263       129.9143 
 703   0.0000       4.784791       130.2008 
 704   0.0000       4.797289       130.5409 
 705   0.0000       4.800729       130.6345 
 706   0.0000       4.818063       131.1062 
 707   0.0000       4.821546       131.2009 
 708   0.0000       4.839134       131.6795 
 709   0.0000       4.889009       133.0367 
 710   0.0000       4.911959       133.6612 
 711   0.0000       4.928595       134.1139 
 712   0.0000       4.984187       135.6266 
 713   0.0000       4.997002       135.9753 
 714   0.0000       5.053704       137.5183 
 715   0.0000       5.060565       137.7050 
 716   0.0000       5.066234       137.8592 
 717   0.0000       5.089007       138.4789 
 718   0.0000       5.107725       138.9883 
 719   0.0000       5.112797       139.1263 
 720   0.0000       5.119019       139.2956 
 721   0.0000       5.132157       139.6531 
 722   0.0000       5.145256       140.0095 
 723   0.0000       5.159146       140.3875 
 724   0.0000       5.175896       140.8433 
 725   0.0000       5.198260       141.4518 
 726   0.0000       5.200858       141.5226 
 727   0.0000       5.223668       142.1432 
 728   0.0000       5.242570       142.6576 
 729   0.0000       5.254808       142.9906 
 730   0.0000       5.266200       143.3006 
 731   0.0000       5.277910       143.6192 
 732   0.0000       5.308275       144.4455 
 733   0.0000       5.321075       144.7938 
 734   0.0000       5.330934       145.0621 
 735   0.0000       5.362181       145.9124 
 736   0.0000       5.372094       146.1821 
 737   0.0000       5.386619       146.5773 
 738   0.0000       5.388281       146.6226 
 739   0.0000       5.405456       147.0899 
 740   0.0000       5.425898       147.6462 
 741   0.0000       5.440541       148.0446 
 742   0.0000       5.451623       148.3462 
 743   0.0000       5.461568       148.6168 
 744   0.0000       5.471290       148.8814 
 745   0.0000       5.482657       149.1907 
 746   0.0000       5.502987       149.7439 
 747   0.0000       5.510200       149.9402 
 748   0.0000       5.526332       150.3791 
 749   0.0000       5.547255       150.9485 
 750   0.0000       5.554984       151.1588 
 751   0.0000       5.590230       152.1179 
 752   0.0000       5.615549       152.8069 
 753   0.0000       5.646473       153.6483 
 754   0.0000       5.651864       153.7950 
 755   0.0000       5.672575       154.3586 
 756   0.0000       5.677261       154.4861 
 757   0.0000       5.690850       154.8559 
 758   0.0000       5.704948       155.2395 
 759   0.0000       5.711011       155.4045 
 760   0.0000       5.715340       155.5223 
 761   0.0000       5.726597       155.8286 
 762   0.0000       5.730760       155.9419 
 763   0.0000       5.763663       156.8372 
 764   0.0000       5.770172       157.0144 
 765   0.0000       5.801643       157.8707 
 766   0.0000       5.813353       158.1894 
 767   0.0000       5.907924       160.7628 
 768   0.0000       5.990229       163.0024 
 769   0.0000       6.063740       165.0028 
 770   0.0000       6.161040       167.6504 
 771   0.0000       6.178642       168.1294 
 772   0.0000       6.264567       170.4675 
 773   0.0000       6.357250       172.9896 
 774   0.0000       6.384916       173.7424 
 775   0.0000       6.392037       173.9362 
 776   0.0000       6.409330       174.4067 
 777   0.0000       6.442146       175.2997 
 778   0.0000       6.457252       175.7107 
 779   0.0000       6.525582       177.5701 
 780   0.0000       6.584444       179.1718 
 781   0.0000       6.641780       180.7320 
 782   0.0000       6.700273       182.3237 
 783   0.0000       6.740288       183.4126 
 784   0.0000       6.770098       184.2237 
 785   0.0000       6.804183       185.1512 
 786   0.0000       6.917306       188.2295 
 787   0.0000       6.931155       188.6063 
 788   0.0000       7.056866       192.0271 
 789   0.0000       7.117789       193.6849 
 790   0.0000       7.143617       194.3877 
 791   0.0000       7.190890       195.6741 
 792   0.0000       7.390145       201.0961 
 793   0.0000       7.502170       204.1444 
 794   0.0000       7.720964       210.0981 
 795   0.0000       7.751614       210.9321 
 796   0.0000       7.767634       211.3681 
 797   0.0000      16.153458       439.5579 
 798   0.0000      22.872724       622.3985 
 799   0.0000      23.028685       626.6424 
 800   0.0000      23.297570       633.9591 
 801   0.0000      23.416909       637.2065 
 802   0.0000      23.457300       638.3056 
 803   0.0000      23.593473       642.0110 
 804   0.0000      23.652780       643.6249 
 805   0.0000      23.690118       644.6409 
 806   0.0000      23.782116       647.1443 
 807   0.0000      29.066598       790.9423 
 808   0.0000      31.562781       858.8669 
 809   0.0000      34.213920       931.0081 
 810   0.0000      44.173472      1202.0213 
 811   0.0000      44.269384      1204.6312 
 812   0.0000      44.542177      1212.0543 
 813   0.0000      44.693228      1216.1646 
 814   0.0000     205.317570      5586.9751 

                    ********************************
                    * MULLIKEN POPULATION ANALYSIS *
                    ********************************

-----------------------
MULLIKEN ATOMIC CHARGES
-----------------------
   0 C :    0.651803
   1 C :   -0.941398
   2 C :   -0.312121
   3 H :    0.047865
   4 H :    0.099891
   5 H :    0.101551
   6 C :    2.377802
   7 O :   -0.525554
   8 C :    0.628952
   9 O :   -0.564459
  10 C :    0.390163
  11 O :   -0.607672
  12 C :   -0.157430
  13 H :    0.086385
  14 H :    0.019070
  15 H :    0.090955
  16 C :   -0.220190
  17 H :    0.045609
  18 H :    0.077457
  19 H :    0.069800
  20 C :   -0.636476
  21 H :    0.072163
  22 H :    0.079157
  23 H :    0.102566
  24 Au:   -0.345028
  25 P :    0.069925
  26 H :    0.098903
  27 H :    0.100147
  28 H :    0.100164
Sum of atomic charges:    1.0000000

--------------------------------
MULLIKEN REDUCED ORBITAL CHARGES
--------------------------------
  0 C s       :     3.127686  s :     3.127686
      pz      :     0.913687  p :     2.239764
      px      :     0.765839
      py      :     0.560238
      dz2     :    -0.014870  d :    -0.028456
      dxz     :     0.003681
      dyz     :     0.018210
      dx2y2   :     0.036480
      dxy     :    -0.071957
      f0      :     0.001392  f :     0.009202
      f+1     :     0.000662
      f-1     :     0.001173
      f+2     :     0.000880
      f-2     :     0.001023
      f+3     :     0.001926
      f-3     :     0.002145
  1 C s       :     4.054536  s :     4.054536
      pz      :     1.157479  p :     2.837313
      px      :     0.612816
      py      :     1.067018
      dz2     :     0.015210  d :     0.039038
      dxz     :     0.012217
      dyz     :    -0.008420
      dx2y2   :     0.074445
      dxy     :    -0.054413
      f0      :     0.001324  f :     0.010511
      f+1     :     0.000841
      f-1     :     0.001234
      f+2     :     0.000597
      f-2     :     0.001716
      f+3     :     0.002215
      f-3     :     0.002584
  2 C s       :     3.301872  s :     3.301872
      pz      :     0.979180  p :     2.943687
      px      :     0.999187
      py      :     0.965320
      dz2     :     0.013398  d :     0.062510
      dxz     :     0.012607
      dyz     :     0.007434
      dx2y2   :     0.004756
      dxy     :     0.024314
      f0      :     0.000318  f :     0.004053
      f+1     :     0.000628
      f-1     :     0.000520
      f+2     :     0.000478
      f-2     :     0.000358
      f+3     :     0.000866
      f-3     :     0.000886
  3 H s       :     0.920263  s :     0.920263
      pz      :    -0.001450  p :     0.030402
      px      :     0.028653
      py      :     0.003198
      dz2     :     0.000054  d :     0.001471
      dxz     :     0.000530
      dyz     :     0.000076
      dx2y2   :     0.000452
      dxy     :     0.000358
  4 H s       :     0.874785  s :     0.874785
      pz      :     0.016102  p :     0.023865
      px      :    -0.000667
      py      :     0.008430
      dz2     :     0.000526  d :     0.001459
      dxz     :     0.000183
      dyz     :     0.000223
      dx2y2   :     0.000344
      dxy     :     0.000183
  5 H s       :     0.875580  s :     0.875580
      pz      :     0.018371  p :     0.021417
      px      :    -0.004868
      py      :     0.007913
      dz2     :     0.000432  d :     0.001453
      dxz     :     0.000287
      dyz     :     0.000447
      dx2y2   :     0.000172
      dxy     :     0.000114
  6 C s       :     2.336684  s :     2.336684
      pz      :     0.384440  p :     1.235896
      px      :     0.378039
      py      :     0.473417
      dz2     :     0.141289  d :     0.035207
      dxz     :     0.026489
      dyz     :    -0.035408
      dx2y2   :    -0.079031
      dxy     :    -0.018131
      f0      :     0.001773  f :     0.014411
      f+1     :     0.003091
      f-1     :     0.001678
      f+2     :     0.001968
      f-2     :     0.001334
      f+3     :     0.002164
      f-3     :     0.002403
  7 O s       :     4.025149  s :     4.025149
      pz      :     1.694522  p :     4.458046
      px      :     1.306937
      py      :     1.456587
      dz2     :     0.006593  d :     0.040258
      dxz     :     0.008150
      dyz     :     0.014436
      dx2y2   :     0.010964
      dxy     :     0.000115
      f0      :     0.000301  f :     0.002100
      f+1     :     0.000287
      f-1     :     0.000201
      f+2     :     0.000270
      f-2     :     0.000179
      f+3     :     0.000440
      f-3     :     0.000422
  8 C s       :     3.085282  s :     3.085282
      pz      :     0.702388  p :     1.937734
      px      :     0.664103
      py      :     0.571244
      dz2     :     0.007482  d :     0.322298
      dxz     :     0.025133
      dyz     :     0.090195
      dx2y2   :     0.105244
      dxy     :     0.094244
      f0      :     0.002422  f :     0.025734
      f+1     :     0.001487
      f-1     :     0.001865
      f+2     :     0.001900
      f-2     :     0.004112
      f+3     :     0.004609
      f-3     :     0.009339
  9 O s       :     4.075439  s :     4.075439
      pz      :     1.477936  p :     4.451099
      px      :     1.532536
      py      :     1.440626
      dz2     :     0.004020  d :     0.036074
      dxz     :     0.007407
      dyz     :     0.011394
      dx2y2   :     0.002891
      dxy     :     0.010362
      f0      :     0.000194  f :     0.001847
      f+1     :     0.000104
      f-1     :     0.000213
      f+2     :     0.000115
      f-2     :     0.000337
      f+3     :     0.000365
      f-3     :     0.000520
 10 C s       :     3.445770  s :     3.445770
      pz      :     0.463255  p :     1.919424
      px      :     0.749293
      py      :     0.706876
      dz2     :     0.043596  d :     0.226638
      dxz     :     0.110331
      dyz     :    -0.002995
      dx2y2   :     0.020806
      dxy     :     0.054901
      f0      :     0.001466  f :     0.018004
      f+1     :     0.003758
      f-1     :     0.001608
      f+2     :     0.003023
      f-2     :     0.002425
      f+3     :     0.002628
      f-3     :     0.003096
 11 O s       :     4.125548  s :     4.125548
      pz      :     1.574073  p :     4.439807
      px      :     1.285689
      py      :     1.580044
      dz2     :     0.005648  d :     0.040436
      dxz     :     0.008994
      dyz     :     0.005986
      dx2y2   :     0.009314
      dxy     :     0.010494
      f0      :     0.000130  f :     0.001882
      f+1     :     0.000436
      f-1     :     0.000083
      f+2     :     0.000260
      f-2     :     0.000260
      f+3     :     0.000410
      f-3     :     0.000303
 12 C s       :     3.126162  s :     3.126162
      pz      :     0.947842  p :     2.956784
      px      :     1.001159
      py      :     1.007783
      dz2     :     0.007427  d :     0.070658
      dxz     :     0.017532
      dyz     :     0.017746
      dx2y2   :     0.014448
      dxy     :     0.013506
      f0      :     0.000498  f :     0.003825
      f+1     :     0.000578
      f-1     :     0.000570
      f+2     :     0.000728
      f-2     :     0.000739
      f+3     :     0.000264
      f-3     :     0.000448
 13 H s       :     0.889796  s :     0.889796
      pz      :     0.011906  p :     0.022313
      px      :    -0.003972
      py      :     0.014379
      dz2     :     0.000510  d :     0.001506
      dxz     :     0.000327
      dyz     :     0.000174
      dx2y2   :     0.000204
      dxy     :     0.000290
 14 H s       :     0.946960  s :     0.946960
      pz      :     0.006012  p :     0.032414
      px      :     0.017116
      py      :     0.009286
      dz2     :     0.000235  d :     0.001555
      dxz     :     0.000242
      dyz     :     0.000341
      dx2y2   :     0.000548
      dxy     :     0.000189
 15 H s       :     0.882276  s :     0.882276
      pz      :     0.009912  p :     0.025264
      px      :     0.006643
      py      :     0.008709
      dz2     :     0.000106  d :     0.001505
      dxz     :     0.000444
      dyz     :     0.000190
      dx2y2   :     0.000389
      dxy     :     0.000375
 16 C s       :     3.203375  s :     3.203375
      pz      :     1.007814  p :     2.970988
      px      :     0.985798
      py      :     0.977375
      dz2     :     0.011488  d :     0.041971
      dxz     :     0.010751
      dyz     :     0.005124
      dx2y2   :     0.004718
      dxy     :     0.009890
      f0      :     0.000283  f :     0.003857
      f+1     :     0.000538
      f-1     :     0.000497
      f+2     :     0.000571
      f-2     :     0.000400
      f+3     :     0.000764
      f-3     :     0.000802
 17 H s       :     0.921210  s :     0.921210
      pz      :     0.003386  p :     0.031654
      px      :     0.005997
      py      :     0.022271
      dz2     :     0.000105  d :     0.001527
      dxz     :     0.000088
      dyz     :     0.000511
      dx2y2   :     0.000347
      dxy     :     0.000476
 18 H s       :     0.896270  s :     0.896270
      pz      :     0.017584  p :     0.024804
      px      :     0.006701
      py      :     0.000518
      dz2     :     0.000486  d :     0.001469
      dxz     :     0.000395
      dyz     :     0.000152
      dx2y2   :     0.000222
      dxy     :     0.000214
 19 H s       :     0.902360  s :     0.902360
      pz      :     0.021287  p :     0.026371
      px      :     0.007306
      py      :    -0.002222
      dz2     :     0.000489  d :     0.001469
      dxz     :     0.000208
      dyz     :     0.000305
      dx2y2   :     0.000303
      dxy     :     0.000163
 20 C s       :     3.402456  s :     3.402456
      pz      :     1.031943  p :     3.101242
      px      :     1.017714
      py      :     1.051584
      dz2     :     0.011460  d :     0.128596
      dxz     :     0.039514
      dyz     :     0.024621
      dx2y2   :     0.026555
      dxy     :     0.026446
      f0      :     0.001146  f :     0.004182
      f+1     :     0.000854
      f-1     :     0.000985
      f+2     :     0.000277
      f-2     :     0.000302
      f+3     :     0.000587
      f-3     :     0.000031
 21 H s       :     0.911487  s :     0.911487
      pz      :    -0.001750  p :     0.014894
      px      :    -0.001066
      py      :     0.017710
[...]
      f0      :     0.004255  f :     0.048607
      f+1     :     0.003733
      f-1     :     0.005110
      f+2     :     0.002487
      f-2     :     0.006932
      f+3     :     0.012724
      f-3     :     0.013366
  2 C s       :     2.640377  s :     2.640377
      pz      :     0.922374  p :     2.699433
      px      :     0.927396
      py      :     0.849664
      dz2     :     0.080069  d :     0.489382
      dxz     :     0.058879
      dyz     :     0.097775
      dx2y2   :     0.108065
      dxy     :     0.144594
      f0      :     0.002303  f :     0.033821
      f+1     :     0.005371
      f-1     :     0.005168
      f+2     :     0.003678
      f-2     :     0.004120
      f+3     :     0.005719
      f-3     :     0.007461
  3 H s       :     0.685486  s :     0.685486
      pz      :     0.075089  p :     0.290755
      px      :     0.134945
      py      :     0.080721
      dz2     :     0.002728  d :     0.029508
      dxz     :     0.008282
      dyz     :     0.001284
      dx2y2   :     0.008473
      dxy     :     0.008741
  4 H s       :     0.694924  s :     0.694924
      pz      :     0.105487  p :     0.281081
      px      :     0.093268
      py      :     0.082326
      dz2     :     0.008176  d :     0.029351
      dxz     :     0.006623
      dyz     :     0.005673
      dx2y2   :     0.004753
      dxy     :     0.004126
  5 H s       :     0.697333  s :     0.697333
      pz      :     0.120140  p :     0.280956
      px      :     0.087254
      py      :     0.073562
      dz2     :     0.009912  d :     0.029329
      dxz     :     0.008287
      dyz     :     0.006820
      dx2y2   :     0.002357
      dxy     :     0.001952
  6 C s       :     2.585289  s :     2.585289
      pz      :     0.872486  p :     2.443458
      px      :     0.715693
      py      :     0.855279
      dz2     :     0.260670  d :     1.224149
      dxz     :     0.252412
      dyz     :     0.241165
      dx2y2   :     0.225772
      dxy     :     0.244131
      f0      :     0.010071  f :     0.094235
      f+1     :     0.017457
      f-1     :     0.010261
      f+2     :     0.015544
      f-2     :     0.011097
      f+3     :     0.015470
      f-3     :     0.014337
  7 O s       :     3.161289  s :     3.161289
      pz      :     1.473176  p :     4.214130
      px      :     1.298355
      py      :     1.442599
      dz2     :     0.078623  d :     0.526447
      dxz     :     0.090772
      dyz     :     0.068379
      dx2y2   :     0.137264
      dxy     :     0.151410
      f0      :     0.000588  f :     0.007329
      f+1     :     0.000860
      f-1     :     0.000592
      f+2     :     0.001016
      f-2     :     0.000496
      f+3     :     0.001624
      f-3     :     0.002153
  8 C s       :     2.616320  s :     2.616320
      pz      :     0.638612  p :     2.335515
      px      :     0.873810
      py      :     0.823093
      dz2     :     0.125280  d :     1.308021
      dxz     :     0.174985
      dyz     :     0.232741
      dx2y2   :     0.416895
      dxy     :     0.358120
      f0      :     0.010252  f :     0.161819
      f+1     :     0.007759
      f-1     :     0.015467
      f+2     :     0.011592
      f-2     :     0.028051
      f+3     :     0.030260
      f-3     :     0.058439
  9 O s       :     3.277562  s :     3.277562
      pz      :     1.316394  p :     4.225878
      px      :     1.419160
      py      :     1.490324
      dz2     :     0.042845  d :     0.323338
      dxz     :     0.035436
      dyz     :     0.040071
      dx2y2   :     0.101794
      dxy     :     0.103192
      f0      :     0.000526  f :     0.006607
      f+1     :     0.000341
      f-1     :     0.000768
      f+2     :     0.000364
      f-2     :     0.000878
      f+3     :     0.001699
      f-3     :     0.002030
 10 C s       :     2.650292  s :     2.650292
      pz      :     0.790126  p :     2.374062
      px      :     0.836035
      py      :     0.747901
      dz2     :     0.246832  d :     1.198045
      dxz     :     0.278276
      dyz     :     0.166594
      dx2y2   :     0.222410
      dxy     :     0.283933
      f0      :     0.009493  f :     0.109957
      f+1     :     0.022193
      f-1     :     0.009754
      f+2     :     0.020990
      f-2     :     0.011835
      f+3     :     0.015914
      f-3     :     0.019777
 11 O s       :     3.326637  s :     3.326637
      pz      :     1.435168  p :     4.307030
      px      :     1.441774
      py      :     1.430088
      dz2     :     0.045658  d :     0.286728
      dxz     :     0.077464
      dyz     :     0.023319
      dx2y2   :     0.055967
      dxy     :     0.084320
      f0      :     0.000594  f :     0.006542
      f+1     :     0.001304
      f-1     :     0.000196
      f+2     :     0.001179
      f-2     :     0.000797
      f+3     :     0.001106
      f-3     :     0.001366
 12 C s       :     2.623648  s :     2.623648
      pz      :     0.870601  p :     2.674367
      px      :     0.908625
      py      :     0.895141
      dz2     :     0.071633  d :     0.426538
      dxz     :     0.090941
      dyz     :     0.121724
      dx2y2   :     0.050632
      dxy     :     0.091607
      f0      :     0.004245  f :     0.031942
      f+1     :     0.005497
      f-1     :     0.004802
      f+2     :     0.005149
      f-2     :     0.004872
      f+3     :     0.002765
      f-3     :     0.004612
 13 H s       :     0.680680  s :     0.680680
      pz      :     0.095827  p :     0.277271
      px      :     0.078132
      py      :     0.103313
      dz2     :     0.007364  d :     0.029508
      dxz     :     0.005085
      dyz     :     0.007794
      dx2y2   :     0.004156
      dxy     :     0.005110
 14 H s       :     0.689721  s :     0.689721
      pz      :     0.076548  p :     0.271469
      px      :     0.096007
      py      :     0.098914
      dz2     :     0.003965  d :     0.029890
      dxz     :     0.004761
      dyz     :     0.005904
      dx2y2   :     0.008166
      dxy     :     0.007094
 15 H s       :     0.677461  s :     0.677461
      pz      :     0.075761  p :     0.278939
      px      :     0.117445
      py      :     0.085732
      dz2     :     0.003231  d :     0.029642
      dxz     :     0.007185
      dyz     :     0.002601
      dx2y2   :     0.008212
      dxy     :     0.008413
 16 C s       :     2.621749  s :     2.621749
      pz      :     0.910131  p :     2.672089
      px      :     0.836551
      py      :     0.925407
      dz2     :     0.058645  d :     0.395906
      dxz     :     0.083920
      dyz     :     0.065853
      dx2y2   :     0.099664
      dxy     :     0.087824
      f0      :     0.002674  f :     0.032026
      f+1     :     0.005112
      f-1     :     0.004491
      f+2     :     0.003967
      f-2     :     0.003765
      f+3     :     0.006974
      f-3     :     0.005043
 17 H s       :     0.689157  s :     0.689157
      pz      :     0.075250  p :     0.268965
      px      :     0.069834
      py      :     0.123881
      dz2     :     0.003167  d :     0.029743
      dxz     :     0.001216
      dyz     :     0.008723
      dx2y2   :     0.008158
      dxy     :     0.008478
 18 H s       :     0.685474  s :     0.685474
      pz      :     0.107445  p :     0.270827
      px      :     0.066802
      py      :     0.096580
      dz2     :     0.008838  d :     0.029533
      dxz     :     0.005582
      dyz     :     0.007804
      dx2y2   :     0.003821
      dxy     :     0.003488
 19 H s       :     0.682143  s :     0.682143
      pz      :     0.107925  p :     0.268679
      px      :     0.079040
      py      :     0.081714
      dz2     :     0.008375  d :     0.029392
      dxz     :     0.007048
      dyz     :     0.006519
      dx2y2   :     0.004039
      dxy     :     0.003411
 20 C s       :     2.614280  s :     2.614280
      pz      :     0.813020  p :     2.630752
      px      :     0.910314
      py      :     0.907418
      dz2     :     0.119462  d :     0.473527
      dxz     :     0.101376
      dyz     :     0.113662
      dx2y2   :     0.062216
      dxy     :     0.076811
      f0      :     0.008599  f :     0.031842
      f+1     :     0.004292
      f-1     :     0.005734
      f+2     :     0.003819
      f-2     :     0.003726
      f+3     :     0.005422
      f-3     :     0.000250
 21 H s       :     0.685788  s :     0.685788
      pz      :     0.065278  p :     0.265034
      px      :     0.088390
      py      :     0.111366
      dz2     :     0.003309  d :     0.029454
      dxz     :     0.002649
      dyz     :     0.006450
      dx2y2   :     0.009076
      dxy     :     0.007971
 22 H s       :     0.676018  s :     0.676018
      pz      :     0.077543  p :     0.286685
      px      :     0.130808
      py      :     0.078334
      dz2     :     0.004190  d :     0.029963
      dxz     :     0.008819
      dyz     :     0.001113
      dx2y2   :     0.007060
      dxy     :     0.008781
 23 H s       :     0.681788  s :     0.681788
      pz      :     0.076346  p :     0.273414
      px      :     0.085850
      py      :     0.111217
      dz2     :     0.005005  d :     0.029610
      dxz     :     0.003309
      dyz     :     0.006923
      dx2y2   :     0.007434
      dxy     :     0.006938
 24 Aus       :     2.419182  s :     2.419182
      pz      :     2.033029  p :     6.402808
      px      :     2.269134
      py      :     2.100644
      dz2     :     1.942530  d :     9.514311
      dxz     :     1.900910
      dyz     :     1.953456
      dx2y2   :     1.874893
      dxy     :     1.842522
      f0      :     0.002274  f :     0.038419
      f+1     :     0.008294
      f-1     :     0.002745
      f+2     :     0.001251
      f-2     :     0.002472
      f+3     :     0.005179
      f-3     :     0.016203
      g0      :     0.000047  g :     0.000555
      g+1     :     0.000049
      g-1     :     0.000016
      g+2     :     0.000041
      g-2     :     0.000074
      g+3     :     0.000011
      g-3     :     0.000043
      g+4     :     0.000119
      g-4     :     0.000156
 25 P s       :     4.799637  s :     4.799637
      pz      :     2.855887  p :     8.762497
      px      :     3.013117
      py      :     2.893493
      dz2     :     0.083263  d :     0.528331
      dxz     :     0.064238
      dyz     :     0.142482
      dx2y2   :     0.081414
      dxy     :     0.156933
      f0      :     0.003816  f :     0.059373
      f+1     :     0.008658
      f-1     :     0.009159
      f+2     :     0.009575
      f-2     :     0.007121
      f+3     :     0.009496
      f-3     :     0.011549
 26 H s       :     0.852395  s :     0.852395
      pz      :     0.108133  p :     0.297041
      px      :     0.082796
      py      :     0.106113
      dz2     :     0.002624  d :     0.012258
      dxz     :     0.001919
      dyz     :     0.004376
      dx2y2   :     0.001487
      dxy     :     0.001852
 27 H s       :     0.853084  s :     0.853084
      pz      :     0.059510  p :     0.300113
      px      :     0.141410
      py      :     0.099194
      dz2     :     0.001579  d :     0.012240
      dxz     :     0.001526
      dyz     :     0.001196
      dx2y2   :     0.003497
      dxy     :     0.004441
 28 H s       :     0.851421  s :     0.851421
      pz      :     0.121955  p :     0.296497
      px      :     0.082960
      py      :     0.091582
      dz2     :     0.003330  d :     0.012264
      dxz     :     0.002534
      dyz     :     0.004185
      dx2y2   :     0.000897
      dxy     :     0.001318


                      *****************************
                      * MAYER POPULATION ANALYSIS *
                      *****************************

  NA   - Mulliken gross atomic population
  ZA   - Total nuclear charge
  QA   - Mulliken gross atomic charge
  VA   - Mayer's total valence
  BVA  - Mayer's bonded valence
  FA   - Mayer's free valence

  ATOM       NA         ZA         QA         VA         BVA        FA
  0 C      5.3482     6.0000     0.6518     2.8175     2.8175    -0.0000
  1 C      6.9414     6.0000    -0.9414     1.9168     1.9168    -0.0000
  2 C      6.3121     6.0000    -0.3121     3.9413     3.9413    -0.0000
  3 H      0.9521     1.0000     0.0479     1.0364     1.0364    -0.0000
  4 H      0.9001     1.0000     0.0999     0.9743     0.9743    -0.0000
  5 H      0.8984     1.0000     0.1016     0.9811     0.9811    -0.0000
  6 C      3.6222     6.0000     2.3778     1.5986     1.5986     0.0000
  7 O      8.5256     8.0000    -0.5256     1.7059     1.7059    -0.0000
  8 C      5.3710     6.0000     0.6290     3.8095     3.8095    -0.0000
  9 O      8.5645     8.0000    -0.5645     1.7791     1.7791    -0.0000
 10 C      5.6098     6.0000     0.3902     3.0731     3.0731     0.0000
 11 O      8.6077     8.0000    -0.6077     1.6203     1.6203    -0.0000
 12 C      6.1574     6.0000    -0.1574     4.3488     4.3488    -0.0000
 13 H      0.9136     1.0000     0.0864     0.9828     0.9828     0.0000
 14 H      0.9809     1.0000     0.0191     1.0233     1.0233    -0.0000
 15 H      0.9090     1.0000     0.0910     0.9757     0.9757     0.0000
 16 C      6.2202     6.0000    -0.2202     3.8784     3.8784    -0.0000
 17 H      0.9544     1.0000     0.0456     1.0227     1.0227    -0.0000
 18 H      0.9225     1.0000     0.0775     0.9955     0.9955     0.0000
 19 H      0.9302     1.0000     0.0698     0.9971     0.9971     0.0000
 20 C      6.6365     6.0000    -0.6365     4.1535     4.1535    -0.0000
 21 H      0.9278     1.0000     0.0722     0.9619     0.9619     0.0000
 22 H      0.9208     1.0000     0.0792     1.0353     1.0353    -0.0000
 23 H      0.8974     1.0000     0.1026     0.9829     0.9829    -0.0000
 24 Au    19.3450    19.0000    -0.3450     1.8725     1.8725    -0.0000
 25 P     14.9301    15.0000     0.0699     3.8291     3.8291     0.0000
 26 H      0.9011     1.0000     0.0989     0.9699     0.9699     0.0000
 27 H      0.8999     1.0000     0.1001     0.9528     0.9528     0.0000
 28 H      0.8998     1.0000     0.1002     0.9711     0.9711     0.0000

  Mayer bond orders larger than 0.100000
B(  0-C ,  1-C ) :   1.0018 B(  0-C ,  2-C ) :   1.2596 B(  0-C , 24-Au) :   0.5483 
B(  1-C ,  2-C ) :  -0.2968 B(  1-C ,  6-C ) :   0.4100 B(  1-C , 10-C ) :   0.2111 
B(  1-C , 20-C ) :   0.2765 B(  1-C , 24-Au) :   0.1346 B(  2-C ,  3-H ) :   1.0360 
B(  2-C ,  4-H ) :   0.9123 B(  2-C ,  5-H ) :   0.9179 B(  6-C ,  7-O ) :   0.1413 
B(  6-C ,  8-C ) :  -0.1165 B(  6-C , 10-C ) :   0.4128 B(  6-C , 20-C ) :   0.7126 
B(  7-O ,  8-C ) :   1.0920 B(  7-O ,  9-O ) :   0.1365 B(  7-O , 10-C ) :   0.1104 
B(  7-O , 20-C ) :   0.2077 B(  8-C ,  9-O ) :   1.4912 B(  8-C , 16-C ) :   1.1594 
B( 10-C , 11-O ) :   1.1948 B( 10-C , 12-C ) :   1.2696 B( 11-O , 12-C ) :   0.1326 
B( 12-C , 13-H ) :   0.8983 B( 12-C , 14-H ) :   1.0643 B( 12-C , 15-H ) :   0.8731 
B( 16-C , 17-H ) :   0.9999 B( 16-C , 18-H ) :   0.9377 B( 16-C , 19-H ) :   0.9137 
B( 20-C , 21-H ) :   0.9967 B( 20-C , 22-H ) :   0.9486 B( 20-C , 23-H ) :   0.9348 
B( 24-Au, 25-P ) :   1.0514 B( 25-P , 26-H ) :   0.9309 B( 25-P , 27-H ) :   0.9251 
B( 25-P , 28-H ) :   0.9324 

-------
TIMINGS
-------

Total SCF time: 0 days 0 hours 0 min 22 sec 

Total time                  ....      22.806 sec
Sum of individual times     ....      21.951 sec  ( 96.3%)

Fock matrix formation       ....      15.425 sec  ( 67.6%)
  Split-RI-J                ....       5.425 sec  ( 35.2% of F)
  XC integration            ....       9.492 sec  ( 61.5% of F)
    Basis function eval.    ....       0.918 sec  (  9.7% of XC)
    Density eval.           ....       3.217 sec  ( 33.9% of XC)
    XC-Functional eval.     ....       0.116 sec  (  1.2% of XC)
    XC-Potential eval.      ....       4.781 sec  ( 50.4% of XC)
Diagonalization             ....       2.585 sec  ( 11.3%)
Density matrix formation    ....       0.078 sec  (  0.3%)
Population analysis         ....       0.148 sec  (  0.6%)
Initial guess               ....       1.671 sec  (  7.3%)
Orbital Transformation      ....       0.000 sec  (  0.0%)
Orbital Orthonormalization  ....       0.000 sec  (  0.0%)
DIIS solution               ....       1.343 sec  (  5.9%)
Grid generation             ....       0.702 sec  (  3.1%)


-------------------------------------------------------------------------------
                          DFT DISPERSION CORRECTION                            
                                                                               
                              DFTD3 V3.1  Rev 1                                
                          USING Becke-Johnson damping                          
-------------------------------------------------------------------------------
The TPSS functional is recognized
Active option DFTDOPT                   ...         4   

molecular C6(AA) [au] = 11646.249776 


            DFT-D V3
 parameters
 s6 scaling factor         :     1.0000 
 a1 scaling factor         :     0.4535 
 s8 scaling factor         :     1.9435 
 a2 scaling factor         :     4.4752 
 ad hoc parameters k1-k3   :    16.0000     1.3333    -4.0000 

 Edisp/kcal,au: -27.962710083856  -0.044561410237 
 E6   /kcal   : -13.352954220 
 E8   /kcal   : -14.609755864 
 % E8         :  52.247281541 

-------------------------   ----------------
Dispersion correction           -0.044561410
-------------------------   ----------------


-------------------------   --------------------
FINAL SINGLE POINT ENERGY     -1054.893794889493
-------------------------   --------------------


                            ***************************************
                            *     ORCA property calculations      *
                            ***************************************

                                    ---------------------
                                    Active property flags
                                    ---------------------
   (+) Dipole Moment


------------------------------------------------------------------------------
                       ORCA ELECTRIC PROPERTIES CALCULATION
------------------------------------------------------------------------------

Dipole Moment Calculation                       ... on
Quadrupole Moment Calculation                   ... off
Polarizability Calculation                      ... off
GBWName                                         ... TMB29_T1.gbw
Electron density file                           ... TMB29_T1.scfp
The origin for moment calculation is the CENTER OF MASS  = (-0.362876, -0.065725 -0.005009)

-------------
DIPOLE MOMENT
-------------
                                X             Y             Z
Electronic contribution:   -211.95664     -43.02373      -5.71445
Nuclear contribution   :    212.91002      43.46471       5.39034
                        -----------------------------------------
Total Dipole Moment    :      0.95338       0.44098      -0.32411
                        -----------------------------------------
Magnitude (a.u.)       :      1.09929
Magnitude (Debye)      :      2.79418



--------------------
Rotational spectrum 
--------------------
 
Rotational constants in cm-1:     0.027720     0.008314     0.006995 
Rotational constants in MHz :   831.016337   249.254276   209.717578 

 Dipole components along the rotational axes: 
x,y,z [a.u.] :     0.956245    -0.430082    -0.330262 
x,y,z [Debye]:     2.430583    -1.093180    -0.839458 

 

Timings for individual modules:

Sum of individual times         ...       26.381 sec (=   0.440 min)
GTO integral calculation        ...        3.235 sec (=   0.054 min)  12.3 %
SCF iterations                  ...       23.147 sec (=   0.386 min)  87.7 %
                             ****ORCA TERMINATED NORMALLY****
TOTAL RUN TIME: 0 days 0 hours 0 minutes 26 seconds 994 msec
