
                                 *****************
                                 * O   R   C   A *
                                 *****************

           --- An Ab Initio, DFT and Semiempirical electronic structure package ---

                  #######################################################
                  #                        -***-                        #
                  #          Department of theory and spectroscopy      #
                  #               Directorship: Frank Neese             #
                  #        Max Planck Institute fuer Kohlenforschung    #
                  #                Kaiser Wilhelm Platz 1               #
                  #                 D-45470 Muelheim/Ruhr               #
                  #                      Germany                        #
                  #                                                     #
                  #                  All rights reserved                #
                  #                        -***-                        #
                  #######################################################


                         Program Version 4.2.0 -  RELEASE  -


 With contributions from (in alphabetic order):
   Daniel Aravena         : Magnetic Suceptibility
   Michael Atanasov       : Ab Initio Ligand Field Theory (pilot matlab implementation)
   Alexander A. Auer      : GIAO ZORA, VPT2
   Ute Becker             : Parallelization
   Giovanni Bistoni       : ED, misc. LED, open-shell LED, HFLED
   Martin Brehm           : Molecular dynamics
   Dmytro Bykov           : SCF Hessian
   Vijay G. Chilkuri      : MRCI spin determinant printing, contributions to CSF-ICE
   Dipayan Datta          : RHF DLPNO-CCSD density
   Achintya Kumar Dutta   : EOM-CC, STEOM-CC
   Dmitry Ganyushin       : Spin-Orbit,Spin-Spin,Magnetic field MRCI
   Miquel Garcia          : C-PCM Hessian, Gaussian charge scheme
   Yang Guo               : DLPNO-NEVPT2, CIM, IAO-localization
   Andreas Hansen         : Spin unrestricted coupled pair/coupled cluster methods
   Benjamin Helmich-Paris : CASSCF linear response (MC-RPA)
   Lee Huntington         : MR-EOM, pCC
   Robert Izsak           : Overlap fitted RIJCOSX, COSX-SCS-MP3, EOM
   Christian Kollmar      : KDIIS, OOCD, Brueckner-CCSD(T), CCSD density
   Simone Kossmann        : Meta GGA functionals, TD-DFT gradient, OOMP2, MP2 Hessian
   Martin Krupicka        : AUTO-CI
   Lucas Lang             : DCDCAS
   Dagmar Lenk            : GEPOL surface, SMD
   Dimitrios Liakos       : Extrapolation schemes; Compound Job, initial MDCI parallelization
   Dimitrios Manganas     : Further ROCIS development; embedding schemes
   Dimitrios Pantazis     : SARC Basis sets
   Taras Petrenko         : DFT Hessian,TD-DFT gradient, ASA, ECA, R-Raman, ABS, FL, XAS/XES, NRVS
   Peter Pinski           : DLPNO-MP2, DLPNO-MP2 Gradient
   Christoph Reimann      : Effective Core Potentials
   Marius Retegan         : Local ZFS, SOC
   Christoph Riplinger    : Optimizer, TS searches, QM/MM, DLPNO-CCSD(T), (RO)-DLPNO pert. Triples
   Tobias Risthaus        : Range-separated hybrids, TD-DFT gradient, RPA, STAB
   Michael Roemelt        : Original ROCIS implementation
   Masaaki Saitow         : Open-shell DLPNO-CCSD energy and density
   Barbara Sandhoefer     : DKH picture change effects
   Avijit Sen             : IP-ROCIS
   Kantharuban Sivalingam : CASSCF convergence, NEVPT2, FIC-MRCI
   Bernardo de Souza      : ESD, SOC TD-DFT
   Georgi Stoychev        : AutoAux, RI-MP2 NMR
   Willem Van den Heuvel  : Paramagnetic NMR
   Boris Wezisla          : Elementary symmetry handling
   Frank Wennmohs         : Technical directorship


 We gratefully acknowledge several colleagues who have allowed us to
 interface, adapt or use parts of their codes:
   Stefan Grimme, W. Hujo, H. Kruse,             : VdW corrections, initial TS optimization,
                  C. Bannwarth                     DFT functionals, gCP, sTDA/sTD-DF
   Ed Valeev, F. Pavosevic, A. Kumar             : LibInt (2-el integral package), F12 methods
   Garnet Chan, S. Sharma, J. Yang, R. Olivares  : DMRG
   Ulf Ekstrom                                   : XCFun DFT Library
   Mihaly Kallay                                 : mrcc  (arbitrary order and MRCC methods)
   Andreas Klamt, Michael Diedenhofen            : otool_cosmo (COSMO solvation model)
   Jiri Pittner, Ondrej Demel                    : Mk-CCSD
   Frank Weinhold                                : gennbo (NPA and NBO analysis)
   Christopher J. Cramer and Donald G. Truhlar   : smd solvation model
   Lars Goerigk                                  : TD-DFT with DH, B97 family of functionals
   V. Asgeirsson, H. Jonsson                     : NEB implementation
   FAccTs GmbH                                   : IRC, NEB, NEB-TS, Multilevel, MM, QM/MM, CI optimization
   S Lehtola, MJT Oliveira, MAL Marques          : LibXC Library


 Your calculation uses the libint2 library for the computation of 2-el integrals
 For citations please refer to: http://libint.valeyev.net

 Your ORCA version has been built with support for libXC version: 4.2.3
 For citations please refer to: https://tddft.org/programs/libxc/

 This ORCA versions uses:
   CBLAS   interface :  Fast vector & matrix operations
   LAPACKE interface :  Fast linear algebra routines
   SCALAPACK package :  Parallel linear algebra routines


Your calculation utilizes the atom-pairwise dispersion correction
with the Becke-Johnson damping scheme (D3BJ)
Cite in your paper:
S.Grimme, S.Ehrlich, L.Goerigk, J Comput Chem, (2011), 32, 1456–1465 
S.Grimme, J.Antony, S.Ehrlich and H.Krieg, J.Chem.Phys., 132, (2010), 154104 
   

----- Orbital basis set information -----
Your calculation utilizes the basis: def2-TZVPPD
   F. Weigend and R. Ahlrichs, Phys. Chem. Chem. Phys. 7, 3297 (2005).
   D. Rappoport and F. Furche, J. Chem. Phys. 133 134105 (2010).

----- AuxJ basis set information -----
Your calculation utilizes the auxiliary basis: def2/J
   F. Weigend, Phys. Chem. Chem. Phys. 8, 1057 (2006).

cite the ECPs for Au [Def2-ECP] as follows:
Ce-Yb(ecp-28): M. Dolg, H. Stoll, H.Preuss, J. Chem. Phys., 1989, 90, 1730-1734.
Y-Cd(ecp-28), Hf-Hg(ecp-46): D. Andrae,U. Haeussermann, M. Dolg, H. Stoll, H. Preuss, Theor. Chim. Acta, 1990, 77, 123-141.
In-Sb(ecp-28), Tl-Bi(ecp-46): B. Metz, H. Stoll, M. Dolg, J. Chem. Phys., 2000, 113, 2563-2569.
Te-Xe(ecp-28), Po-Rn(ecp-46): K. A. Peterson, D. Figgen, E. Goll, H. Stoll, M. Dolg, J. Chem. Phys., 2003, 119, 11113-11123.
Rb(ecp-28), Cs(ecp-46): T. Leininger, A. Nicklass, W. Kuechle, H. Stoll, M. Dolg, A. Bergner, Chem. Phys. Lett., 1996, 255, 274-280.
Sr(ecp-28), Ba(ecp-46): M. Kaupp, P. V. Schleyer, H. Stoll and H. Preuss, J. Chem. Phys., 1991, 94, 1360-1366.
La(ecp-46): M. Dolg, H. Stoll, A. Savin, H. Preuss, Theor. Chim. Acta, 1989, 75, 173-194.
Lu(ecp-28): X. Cao, M. Dolg, J. Chem. Phys., 2001, 115, 7348-7355.

ECP parameters for Au [Def2-ECP] have been obtained from:
TURBOMOLE (7.0.2)

================================================================================
                                        WARNINGS
                       Please study these warnings very carefully!
================================================================================


INFO   : the flag for use of LIBINT has been found!

================================================================================
                                       INPUT FILE
================================================================================
NAME = TMB28_C1.in
|  1> #
|  2> # TMB28_C1 TPSS-D3BJ/Def2-TZVPPD
|  3> #
|  4> ! tpss d3bj def2-tzvppd def2/j grid4 nofinalgrid
|  5> 
|  6> *xyz 0 1
|  7> C       -0.405710    1.676464   -0.132905 
|  8> C       -0.911585    0.669613    0.356254 
|  9> C       -0.058307    2.983711   -0.650101 
| 10> H       -0.949750    3.612259   -0.580916 
| 11> H        0.745323    3.420879   -0.056180 
| 12> H        0.255303    2.923577   -1.693087 
| 13> C       -1.922079   -0.256189    0.903797 
| 14> O       -2.980737   -0.448274   -0.040247 
| 15> C       -3.644467    0.620195   -0.535863 
| 16> O       -3.419291    1.755394   -0.218963 
| 17> C       -1.315036   -1.659397    1.187254 
| 18> O       -0.292489   -1.714090    1.813533 
| 19> C       -2.070337   -2.858032    0.718520 
| 20> H       -2.050973   -2.878590   -0.373534 
| 21> H       -1.593281   -3.749478    1.117849 
| 22> H       -3.118661   -2.810283    1.017394 
| 23> C       -4.664667    0.177679   -1.534856 
| 24> H       -5.268795    1.028888   -1.835351 
| 25> H       -4.153929   -0.239550   -2.404894 
| 26> H       -5.293840   -0.608504   -1.117133 
| 27> C       -2.442836    0.266886    2.244835 
| 28> H       -3.205737   -0.415249    2.624458 
| 29> H       -1.614369    0.303689    2.950542 
| 30> H       -2.869838    1.259004    2.124200 
| 31> Au       1.189623    0.069390   -0.174295 
| 32> Cl       0.186320   -1.092349   -1.885264 
| 33> Cl       3.146088   -1.001725   -0.550079 
| 34> Cl       2.155158    1.282412    1.507095 
| 35> *
| 36> 
| 37> %maxcore 5000
| 38> 
| 39> %pal
| 40> nprocs = 24
| 41> end
| 42> 
| 43> 
| 44>                          ****END OF INPUT****
================================================================================

                       ****************************
                       * Single Point Calculation *
                       ****************************

---------------------------------
CARTESIAN COORDINATES (ANGSTROEM)
---------------------------------
  C     -0.405710    1.676464   -0.132905
  C     -0.911585    0.669613    0.356254
  C     -0.058307    2.983711   -0.650101
  H     -0.949750    3.612259   -0.580916
  H      0.745323    3.420879   -0.056180
  H      0.255303    2.923577   -1.693087
  C     -1.922079   -0.256189    0.903797
  O     -2.980737   -0.448274   -0.040247
  C     -3.644467    0.620195   -0.535863
  O     -3.419291    1.755394   -0.218963
  C     -1.315036   -1.659397    1.187254
  O     -0.292489   -1.714090    1.813533
  C     -2.070337   -2.858032    0.718520
  H     -2.050973   -2.878590   -0.373534
  H     -1.593281   -3.749478    1.117849
  H     -3.118661   -2.810283    1.017394
  C     -4.664667    0.177679   -1.534856
  H     -5.268795    1.028888   -1.835351
  H     -4.153929   -0.239550   -2.404894
  H     -5.293840   -0.608504   -1.117133
  C     -2.442836    0.266886    2.244835
  H     -3.205737   -0.415249    2.624458
  H     -1.614369    0.303689    2.950542
  H     -2.869838    1.259004    2.124200
  Au     1.189623    0.069390   -0.174295
  Cl     0.186320   -1.092349   -1.885264
  Cl     3.146088   -1.001725   -0.550079
  Cl     2.155158    1.282412    1.507095

----------------------------
CARTESIAN COORDINATES (A.U.)
----------------------------
  NO LB      ZA    FRAG     MASS         X           Y           Z
   0 C     6.0000    0    12.011   -0.766681    3.168058   -0.251154
   1 C     6.0000    0    12.011   -1.722646    1.265385    0.673222
   2 C     6.0000    0    12.011   -0.110184    5.638397   -1.228513
   3 H     1.0000    0     1.008   -1.794767    6.826180   -1.097772
   4 H     1.0000    0     1.008    1.408456    6.464524   -0.106165
   5 H     1.0000    0     1.008    0.482453    5.524760   -3.199471
   6 C     6.0000    0    12.011   -3.632203   -0.484127    1.707929
   7 O     8.0000    0    15.999   -5.632777   -0.847115   -0.076056
   8 C     6.0000    0    12.011   -6.887045    1.171999   -1.012634
   9 O     8.0000    0    15.999   -6.461524    3.317214   -0.413780
  10 C     6.0000    0    12.011   -2.485058   -3.135806    2.243585
  11 O     8.0000    0    15.999   -0.552724   -3.239161    3.427081
  12 C     6.0000    0    12.011   -3.912370   -5.400898    1.357806
  13 H     1.0000    0     1.008   -3.875777   -5.439747   -0.705877
  14 H     1.0000    0     1.008   -3.010865   -7.085487    2.112428
  15 H     1.0000    0     1.008   -5.893415   -5.310665    1.922596
  16 C     6.0000    0    12.011   -8.814943    0.335765   -2.900457
  17 H     1.0000    0     1.008   -9.956580    1.944317   -3.468311
  18 H     1.0000    0     1.008   -7.849788   -0.452684   -4.544591
  19 H     1.0000    0     1.008  -10.003908   -1.149906   -2.111075
  20 C     6.0000    0    12.011   -4.616291    0.504341    4.242123
  21 H     1.0000    0     1.008   -6.057965   -0.784707    4.959507
  22 H     1.0000    0     1.008   -3.050715    0.573889    5.575716
  23 H     1.0000    0     1.008   -5.423208    2.379173    4.014156
  24 Au   19.0000*   0   196.966    2.248062    0.131128   -0.329370
  25 Cl   17.0000    0    35.453    0.352094   -2.064240   -3.562633
  26 Cl   17.0000    0    35.453    5.945245   -1.892986   -1.039499
  27 Cl   17.0000    0    35.453    4.072658    2.423407    2.847997
* core charge reduced due to ECP

--------------------------------
INTERNAL COORDINATES (ANGSTROEM)
--------------------------------
 C      0   0   0     0.000000000000     0.00000000     0.00000000
 C      1   0   0     1.228387145450     0.00000000     0.00000000
 C      1   2   0     1.448128193854   168.79214473     0.00000000
 H      3   1   2     1.092945458281   107.50989515   355.76168110
 H      3   1   2     1.090724159155   110.12638787   115.15683959
 H      3   1   2     1.090773636577   111.14368651   236.46346863
 C      2   1   3     1.475808525551   160.71730875    11.73944301
 O      7   2   1     1.431388305850   110.23666799    55.71230314
 C      8   7   2     1.351961070563   119.92204441   305.15015094
 O      9   8   7     1.199919418368   123.96850747   358.81169031
 C      7   2   1     1.554941081187   111.49568140   174.06677513
 O     11   7   2     1.200341233691   117.95651424    49.57770823
 C     11   7   2     1.492285839436   118.03352224   226.85059581
 H     13  11   7     1.092419120473   108.67161408    68.32903860
 H     13  11   7     1.087070397119   108.73407306   188.19966135
 H     13  11   7     1.091141074221   111.41312702   310.73358940
 C      9   8   7     1.494863025265   110.24813349   177.90249355
 H     17   9   8     1.086197333402   109.41925892   173.27338190
 H     17   9   8     1.091741482462   109.05232332   293.42365153
 H     17   9   8     1.090153603006   110.56645034    51.34721503
 C      7   2   1     1.530744337281   110.09668529   291.85636325
 H     21   7   2     1.091530904810   109.20285917   178.63424783
 H     21   7   2     1.088914322041   108.69227279   297.57632816
 H     21   7   2     1.086821805612   110.38676078    58.15058517
 Au     2   1   3     2.248738524238    74.93138353   182.22294640
 Cl    25   2   1     2.298623356031    84.41462757   253.54034085
 Cl    25   2   1     2.261914289735   166.85712050   184.30645497
 Cl    25   2   1     2.287083850848    94.55729635    72.14220312

---------------------------
INTERNAL COORDINATES (A.U.)
---------------------------
 C      0   0   0     0.000000000000     0.00000000     0.00000000
 C      1   0   0     2.321315291330     0.00000000     0.00000000
 C      1   2   0     2.736565693194   168.79214473     0.00000000
 H      3   1   2     2.065367595465   107.50989515   355.76168110
 H      3   1   2     2.061169948455   110.12638787   115.15683959
 H      3   1   2     2.061263447232   111.14368651   236.46346863
 C      2   1   3     2.788873939398   160.71730875    11.73944301
 O      7   2   1     2.704931889355   110.23666799    55.71230314
 C      8   7   2     2.554836167086   119.92204441   305.15015094
 O      9   8   7     2.267519083490   123.96850747   358.81169031
 C      7   2   1     2.938412797826   111.49568140   174.06677513
 O     11   7   2     2.268316198929   117.95651424    49.57770823
 C     11   7   2     2.820011550063   118.03352224   226.85059581
 H     13  11   7     2.064372961154   108.67161408    68.32903860
 H     13  11   7     2.054265338848   108.73407306   188.19966135
 H     13  11   7     2.061957803751   111.41312702   310.73358940
 C      9   8   7     2.824881725476   110.24813349   177.90249355
 H     17   9   8     2.052615487526   109.41925892   173.27338190
 H     17   9   8     2.063092410895   109.05232332   293.42365153
 H     17   9   8     2.060091753589   110.56645034    51.34721503
 C      7   2   1     2.892687578512   110.09668529   291.85636325
 H     21   7   2     2.062694476802   109.20285917   178.63424783
 H     21   7   2     2.057749851963   108.69227279   297.57632816
 H     21   7   2     2.053795568980   110.38676078    58.15058517
 Au     2   1   3     4.249499957609    74.93138353   182.22294640
 Cl    25   2   1     4.343768627933    84.41462757   253.54034085
 Cl    25   2   1     4.274398546002   166.85712050   184.30645497
 Cl    25   2   1     4.321962123416    94.55729635    72.14220312

---------------------
BASIS SET INFORMATION
---------------------
There are 5 groups of distinct atoms

 Group   1 Type C   : 12s6p3d1f contracted to 6s3p3d1f pattern {621111/411/111/1}
 Group   2 Type H   : 5s3p1d contracted to 3s3p1d pattern {311/111/1}
 Group   3 Type O   : 12s7p3d1f contracted to 6s4p3d1f pattern {621111/4111/111/1}
 Group   4 Type Au  : 8s8p6d2f1g contracted to 6s5p3d2f1g pattern {311111/41111/411/11/1}
 Group   5 Type Cl  : 15s10p4d1f contracted to 6s6p4d1f pattern {732111/511111/1111/1}

Atom   0C    basis set group =>   1
Atom   1C    basis set group =>   1
Atom   2C    basis set group =>   1
Atom   3H    basis set group =>   2
Atom   4H    basis set group =>   2
Atom   5H    basis set group =>   2
Atom   6C    basis set group =>   1
Atom   7O    basis set group =>   3
Atom   8C    basis set group =>   1
Atom   9O    basis set group =>   3
Atom  10C    basis set group =>   1
Atom  11O    basis set group =>   3
Atom  12C    basis set group =>   1
Atom  13H    basis set group =>   2
Atom  14H    basis set group =>   2
Atom  15H    basis set group =>   2
Atom  16C    basis set group =>   1
Atom  17H    basis set group =>   2
Atom  18H    basis set group =>   2
Atom  19H    basis set group =>   2
Atom  20C    basis set group =>   1
Atom  21H    basis set group =>   2
Atom  22H    basis set group =>   2
Atom  23H    basis set group =>   2
Atom  24Au   basis set group =>   4
Atom  25Cl   basis set group =>   5
Atom  26Cl   basis set group =>   5
Atom  27Cl   basis set group =>   5
---------------------------------
AUXILIARY/J BASIS SET INFORMATION
---------------------------------
There are 5 groups of distinct atoms

 Group   1 Type C   : 12s5p4d2f1g contracted to 6s4p3d1f1g pattern {711111/2111/211/2/1}
 Group   2 Type H   : 5s2p1d contracted to 3s1p1d pattern {311/2/1}
 Group   3 Type O   : 12s5p4d2f1g contracted to 6s4p3d1f1g pattern {711111/2111/211/2/1}
 Group   4 Type Au  : 11s5p5d3f3g contracted to 8s5p5d2f3g pattern {41111111/11111/11111/21/111}
 Group   5 Type Cl  : 14s5p5d2f1g contracted to 8s4p3d1f1g pattern {71111111/2111/311/2/1}

Atom   0C    basis set group =>   1
Atom   1C    basis set group =>   1
Atom   2C    basis set group =>   1
Atom   3H    basis set group =>   2
Atom   4H    basis set group =>   2
Atom   5H    basis set group =>   2
Atom   6C    basis set group =>   1
Atom   7O    basis set group =>   3
Atom   8C    basis set group =>   1
Atom   9O    basis set group =>   3
Atom  10C    basis set group =>   1
Atom  11O    basis set group =>   3
Atom  12C    basis set group =>   1
Atom  13H    basis set group =>   2
Atom  14H    basis set group =>   2
Atom  15H    basis set group =>   2
Atom  16C    basis set group =>   1
Atom  17H    basis set group =>   2
Atom  18H    basis set group =>   2
Atom  19H    basis set group =>   2
Atom  20C    basis set group =>   1
Atom  21H    basis set group =>   2
Atom  22H    basis set group =>   2
Atom  23H    basis set group =>   2
Atom  24Au   basis set group =>   4
Atom  25Cl   basis set group =>   5
Atom  26Cl   basis set group =>   5
Atom  27Cl   basis set group =>   5
-------------------------
ECP PARAMETER INFORMATION
-------------------------

 Group 1, Type Au ECP Def2-ECP (replacing 60 core electrons, lmax=3)

Atom  24Au   ECP group =>   1



           ************************************************************
           *        Program running with 24 parallel MPI-processes    *
           *              working on a common directory               *
           ************************************************************
------------------------------------------------------------------------------
                           ORCA GTO INTEGRAL CALCULATION
                           -- RI-GTO INTEGRALS CHOSEN --
------------------------------------------------------------------------------

                         BASIS SET STATISTICS AND STARTUP INFO

Gaussian basis set:
 # of primitive gaussian shells          ...  490
 # of primitive gaussian functions       ... 1162
 # of contracted shells                  ...  311
 # of contracted basis functions         ...  869
 Highest angular momentum                ...    4
 Maximum contraction depth               ...    7
Auxiliary gaussian basis set:
 # of primitive gaussian shells          ...  492
 # of primitive gaussian functions       ... 1362
 # of contracted shells                  ...  314
 # of contracted aux-basis functions     ...  962
 Highest angular momentum                ...    4
 Maximum contraction depth               ...    7
Ratio of auxiliary to basis functions    ...  1.11
Integral package used                  ... LIBINT
 One Electron integrals                  
   ECP integrals                         ... done
 Ordering auxiliary basis shells         ... done
 Integral threshhold             Thresh  ...  1.000e-10
 Primitive cut-off               TCut    ...  1.000e-11
 Pre-screening matrix                    ... done
 Shell pair data                         ... 
 Ordering of the shell pairs             ... done (   0.007 sec) 40002 of 48516 pairs
 Determination of significant pairs      ... done (   0.000 sec)
 Creation of shell pair data             ... done (   0.004 sec)
 Storage of shell pair data              ... done (   0.005 sec)
 Shell pair data done in (   0.016 sec)
 Computing two index integrals           ... done
 Cholesky decomposition of the V-matrix  ... done


Timings:
 Total evaluation time                   ...   3.394 sec (  0.057 min)
 One electron matrix time                ...   2.877 sec (  0.048 min) = 84.8%
 Schwartz matrix evaluation time         ...   0.442 sec (  0.007 min) = 13.0%
 Two index repulsion integral time       ...   0.020 sec (  0.000 min) =  0.6%
 Cholesky decomposition of V             ...   0.016 sec (  0.000 min) =  0.5%
 Three index repulsion integral time     ...   0.000 sec (  0.000 min) =  0.0%



           ************************************************************
           *        Program running with 24 parallel MPI-processes    *
           *              working on a common directory               *
           ************************************************************
-------------------------------------------------------------------------------
                                 ORCA SCF
-------------------------------------------------------------------------------

------------
SCF SETTINGS
------------
Hamiltonian:
 Density Functional     Method          .... DFT(GTOs)
 Exchange Functional    Exchange        .... TPSS
 Correlation Functional Correlation     .... TPSS
 LDA part of GGA corr.  LDAOpt          .... PW91-LDA
 Gradients option       PostSCFGGA      .... off
   Density functional embedding theory  .... OFF
   NL short-range parameter             ....  5.000000
 RI-approximation to the Coulomb term is turned on
   Number of auxiliary basis functions  .... 962


General Settings:
 Integral files         IntName         .... TMB28_C1
 Hartree-Fock type      HFTyp           .... RHF
 Total Charge           Charge          ....    0
 Multiplicity           Mult            ....    1
 Number of Electrons    NEL             ....  160
 Basis Dimension        Dim             ....  869
 Nuclear Repulsion      ENuc            ....   1829.0504274765 Eh

Convergence Acceleration:
 DIIS                   CNVDIIS         .... on
   Start iteration      DIISMaxIt       ....    12
   Startup error        DIISStart       ....  0.200000
   # of expansion vecs  DIISMaxEq       ....     5
   Bias factor          DIISBfac        ....   1.050
   Max. coefficient     DIISMaxC        ....  10.000
 Newton-Raphson         CNVNR           .... off
 SOSCF                  CNVSOSCF        .... off
 Level Shifting         CNVShift        .... on
   Level shift para.    LevelShift      ....    0.2500
   Turn off err/grad.   ShiftErr        ....    0.0010
 Zerner damping         CNVZerner       .... off
 Static damping         CNVDamp         .... on
   Fraction old density DampFac         ....    0.7000
   Max. Damping (<1)    DampMax         ....    0.9800
   Min. Damping (>=0)   DampMin         ....    0.0000
   Turn off err/grad.   DampErr         ....    0.1000
 Fernandez-Rico         CNVRico         .... off

SCF Procedure:
 Maximum # iterations   MaxIter         ....   125
 SCF integral mode      SCFMode         .... Direct
   Integral package                     .... LIBINT
 Reset frequency        DirectResetFreq ....    20
 Integral Threshold     Thresh          ....  1.000e-10 Eh
 Primitive CutOff       TCut            ....  1.000e-11 Eh

Convergence Tolerance:
 Convergence Check Mode ConvCheckMode   .... Total+1el-Energy
 Convergence forced     ConvForced      .... 0
 Energy Change          TolE            ....  1.000e-06 Eh
 1-El. energy change                    ....  1.000e-03 Eh
 DIIS Error             TolErr          ....  1.000e-06


Diagonalization of the overlap matrix:
Smallest eigenvalue                        ... 1.147e-07
Time for diagonalization                   ...    0.156 sec
Threshold for overlap eigenvalues          ... 1.000e-08
Number of eigenvalues below threshold      ... 0
Time for construction of square roots      ...    0.093 sec
Total time needed                          ...    0.252 sec

-------------------
DFT GRID GENERATION
-------------------

General Integration Accuracy     IntAcc      ...  4.670
Radial Grid Type                 RadialGrid  ... Gauss-Chebyshev
Angular Grid (max. acc.)         AngularGrid ... Lebedev-302
Angular grid pruning method      GridPruning ... 3 (G Style)
Weight generation scheme         WeightScheme... Becke
Basis function cutoff            BFCut       ...    1.0000e-10
Integration weight cutoff        WCut        ...    1.0000e-14
Grids for H and He will be reduced by one unit

# of grid points (after initial pruning)     ... 147138 (   0.0 sec)
# of grid points (after weights+screening)   ... 130379 (   0.1 sec)
nearest neighbour list constructed           ...    0.0 sec
Grid point re-assignment to atoms done       ...    0.0 sec
Grid point division into batches done        ...    0.5 sec
Reduced shell lists constructed in    0.6 sec

Total number of grid points                  ...   130379
Total number of batches                      ...     2048
Average number of points per batch           ...       63
Average number of grid points per atom       ...     4656
Average number of shells per batch           ...   193.97 (62.37%)
Average number of basis functions per batch  ...   547.87 (63.05%)
Average number of large shells per batch     ...   152.14 (78.44%)
Average number of large basis fcns per batch ...   426.57 (77.86%)
Maximum spatial batch extension              ...   2.30,  2.58,  2.08 au
Average spatial batch extension              ...   0.05,  0.05,  0.05 au

Time for grid setup =    0.764 sec

------------------------------
INITIAL GUESS: MODEL POTENTIAL
------------------------------
Loading Hartree-Fock densities                     ... done
  calling /sw/apps/orca/orca_4_2_0_linux_x86-64_openmpi314/orca TMB28_C1_atom79.inp > TMB28_C1_atom79.out in order to generate an atomic fitting density for atom 24 (Au with ECP) on-the-fly... 
    atom 24 (Au), assumed electronic state with S=2: 1s2 2s2 2p6 3s2 3p6 4s2 3d10 4p6 5s2 4d10 5p6 6s1 4f14 5d10           ... done
Calculating cut-offs                               ... done
Setting up the integral package                    ... done
Initializing the effective Hamiltonian             ... done
Starting the Coulomb interaction                   ... done (   0.1 sec)
Reading the grid                                   ... done
Mapping shells                                     ... done
Starting the XC term evaluation                    ... done (   0.4 sec)
  promolecular density results
     # of electrons  =    219.995265810
     EX              =   -522.023953454
     EC              =     -9.854761278
     EX+EC           =   -531.878714732
Transforming the Hamiltonian                       ... done (   0.1 sec)
Diagonalizing the Hamiltonian                      ... done (   0.1 sec)
Back transforming the eigenvectors                 ... done (   0.0 sec)
Now organizing SCF variables                       ... done
                      ------------------
                      INITIAL GUESS DONE (   2.7 sec)
                      ------------------
--------------
SCF ITERATIONS
--------------
ITER       Energy         Delta-E        Max-DP      RMS-DP      [F,P]     Damp
               ***  Starting incremental Fock matrix formation  ***
  0  -2092.1451671633   0.000000000000 4.74775487  0.01282734  0.5613297 0.7000
  1  -2092.3678977539  -0.222730590633 3.90445478  0.01037216  0.3982809 0.7000
  2  -2092.4421371594  -0.074239405461 3.24703875  0.00831115  0.2796393 0.7000
                               ***Turning on DIIS***
  3  -2092.4913842765  -0.049247117051 2.36854101  0.00589958  0.1943123 0.7000
  4  -2092.5264793694  -0.035095092995 1.03184686  0.00264890  0.1343474 0.7000
  5  -2092.5510139878  -0.024534618382 2.63418091  0.00628434  0.0936140 0.0000
  6  -2092.6080149119  -0.057000924072 1.16120923  0.00288485  0.0031822 0.0000
  7  -2092.6080929848  -0.000078072895 1.20441764  0.00308906  0.0021955 0.0000
  8  -2092.6081161951  -0.000023210318 2.69645783  0.00679374  0.0007985 0.0000
  9  -2092.6081191684  -0.000002973256 0.86602522  0.00231165  0.0003892 0.0000
 10  -2092.6081200911  -0.000000922765 0.16928100  0.00050155  0.0002276 0.0000
 11  -2092.6081203303  -0.000000239153 0.30039898  0.00103403  0.0000537 0.0000
                 **** Energy Check signals convergence ****

               *****************************************************
               *                     SUCCESS                       *
               *           SCF CONVERGED AFTER  12 CYCLES          *
               *****************************************************


----------------
TOTAL SCF ENERGY
----------------

Total Energy       :        -2092.60812042 Eh          -56942.76187 eV

Components:
Nuclear Repulsion  :         1829.05042748 Eh           49770.99244 eV
Electronic Energy  :        -3921.65854789 Eh         -106713.75431 eV
One Electron Energy:        -6571.43866512 Eh         -178817.93701 eV
Two Electron Energy:         2649.78011723 Eh           72104.18270 eV

Virial components:
Potential Energy   :        -4090.53369876 Eh         -111309.08079 eV
Kinetic Energy     :         1997.92557834 Eh           54366.31892 eV
Virial Ratio       :            2.04739042


DFT components:
N(Alpha)           :       79.999909091105 electrons
N(Beta)            :       79.999909091105 electrons
N(Total)           :      159.999818182209 electrons
E(X)               :     -171.053584825638 Eh       
E(C)               :       -5.857532133538 Eh       
E(XC)              :     -176.911116959176 Eh       
DFET-embed. en.    :        0.000000000000 Eh       

---------------
SCF CONVERGENCE
---------------

  Last Energy change         ...   -8.6493e-08  Tolerance :   1.0000e-06
  Last MAX-Density change    ...    1.8865e-01  Tolerance :   1.0000e-05
  Last RMS-Density change    ...    6.4271e-04  Tolerance :   1.0000e-06
  Last DIIS Error            ...    2.7755e-05  Tolerance :   1.0000e-06

             **** THE GBW FILE WAS UPDATED (TMB28_C1.gbw) ****
             **** DENSITY FILE WAS UPDATED (TMB28_C1.scfp) ****
             **** ENERGY FILE WAS UPDATED (TMB28_C1.en.tmp) ****
             **** THE GBW FILE WAS UPDATED (TMB28_C1.gbw) ****
             **** DENSITY FILE WAS UPDATED (TMB28_C1.scfp) ****
----------------
ORBITAL ENERGIES
----------------

  NO   OCC          E(Eh)            E(eV) 
   0   2.0000    -100.969061     -2747.5078 
   1   2.0000    -100.965608     -2747.4139 
   2   2.0000    -100.963682     -2747.3615 
   3   2.0000     -18.963613      -516.0261 
   4   2.0000     -18.906248      -514.4652 
   5   2.0000     -18.902409      -514.3607 
   6   2.0000     -10.140186      -275.9285 
   7   2.0000     -10.120699      -275.3982 
   8   2.0000     -10.105645      -274.9886 
   9   2.0000     -10.072405      -274.0841 
  10   2.0000     -10.063155      -273.8324 
  11   2.0000     -10.042918      -273.2817 
  12   2.0000     -10.021564      -272.7006 
  13   2.0000     -10.020937      -272.6835 
  14   2.0000     -10.012252      -272.4472 
  15   2.0000      -9.218477      -250.8475 
  16   2.0000      -9.214948      -250.7515 
  17   2.0000      -9.212910      -250.6960 
  18   2.0000      -6.996653      -190.3886 
  19   2.0000      -6.993475      -190.3021 
  20   2.0000      -6.991867      -190.2584 
  21   2.0000      -6.988531      -190.1676 
  22   2.0000      -6.987929      -190.1512 
  23   2.0000      -6.984776      -190.0654 
  24   2.0000      -6.984275      -190.0518 
  25   2.0000      -6.982763      -190.0106 
  26   2.0000      -6.981777      -189.9838 
  27   2.0000      -4.143390      -112.7474 
  28   2.0000      -2.357344       -64.1466 
  29   2.0000      -2.353999       -64.0556 
  30   2.0000      -2.330268       -63.4098 
  31   2.0000      -1.076096       -29.2820 
  32   2.0000      -1.016401       -27.6577 
  33   2.0000      -0.990376       -26.9495 
  34   2.0000      -0.817421       -22.2432 
  35   2.0000      -0.779601       -21.2140 
  36   2.0000      -0.741412       -20.1748 
  37   2.0000      -0.725534       -19.7428 
  38   2.0000      -0.724832       -19.7237 
  39   2.0000      -0.722454       -19.6590 
  40   2.0000      -0.720853       -19.6154 
  41   2.0000      -0.705817       -19.2063 
  42   2.0000      -0.650711       -17.7068 
  43   2.0000      -0.583450       -15.8765 
  44   2.0000      -0.554243       -15.0817 
  45   2.0000      -0.483653       -13.1609 
  46   2.0000      -0.481218       -13.0946 
  47   2.0000      -0.473484       -12.8841 
  48   2.0000      -0.471558       -12.8317 
  49   2.0000      -0.456168       -12.4130 
  50   2.0000      -0.449348       -12.2274 
  51   2.0000      -0.441034       -12.0011 
  52   2.0000      -0.432500       -11.7689 
  53   2.0000      -0.425827       -11.5873 
  54   2.0000      -0.418346       -11.3838 
  55   2.0000      -0.413451       -11.2506 
  56   2.0000      -0.410866       -11.1802 
  57   2.0000      -0.403708       -10.9855 
  58   2.0000      -0.400901       -10.9091 
  59   2.0000      -0.399073       -10.8593 
  60   2.0000      -0.394886       -10.7454 
  61   2.0000      -0.382902       -10.4193 
  62   2.0000      -0.377334       -10.2678 
  63   2.0000      -0.371630       -10.1126 
  64   2.0000      -0.366775        -9.9805 
  65   2.0000      -0.356754        -9.7078 
  66   2.0000      -0.353679        -9.6241 
  67   2.0000      -0.324356        -8.8262 
  68   2.0000      -0.321181        -8.7398 
  69   2.0000      -0.315297        -8.5797 
  70   2.0000      -0.308448        -8.3933 
  71   2.0000      -0.287343        -7.8190 
  72   2.0000      -0.277149        -7.5416 
  73   2.0000      -0.269321        -7.3286 
  74   2.0000      -0.262609        -7.1459 
  75   2.0000      -0.251876        -6.8539 
  76   2.0000      -0.249874        -6.7994 
  77   2.0000      -0.245714        -6.6862 
  78   2.0000      -0.242193        -6.5904 
  79   2.0000      -0.239297        -6.5116 
  80   0.0000      -0.157611        -4.2888 
  81   0.0000      -0.089074        -2.4238 
  82   0.0000      -0.080271        -2.1843 
  83   0.0000      -0.057585        -1.5670 
  84   0.0000      -0.050572        -1.3761 
  85   0.0000      -0.028803        -0.7838 
  86   0.0000      -0.013092        -0.3563 
  87   0.0000      -0.003242        -0.0882 
  88   0.0000       0.001568         0.0427 
  89   0.0000       0.013767         0.3746 
  90   0.0000       0.024224         0.6592 
  91   0.0000       0.025883         0.7043 
  92   0.0000       0.031280         0.8512 
  93   0.0000       0.035697         0.9714 
  94   0.0000       0.039908         1.0860 
  95   0.0000       0.042846         1.1659 
  96   0.0000       0.046780         1.2730 
  97   0.0000       0.050835         1.3833 
  98   0.0000       0.055648         1.5143 
  99   0.0000       0.056458         1.5363 
 100   0.0000       0.059246         1.6122 
 101   0.0000       0.062015         1.6875 
 102   0.0000       0.066627         1.8130 
 103   0.0000       0.068935         1.8758 
 104   0.0000       0.074401         2.0246 
 105   0.0000       0.077607         2.1118 
 106   0.0000       0.081997         2.2312 
 107   0.0000       0.086163         2.3446 
 108   0.0000       0.087852         2.3906 
 109   0.0000       0.091821         2.4986 
 110   0.0000       0.095651         2.6028 
 111   0.0000       0.099185         2.6990 
 112   0.0000       0.103968         2.8291 
 113   0.0000       0.105228         2.8634 
 114   0.0000       0.107295         2.9196 
 115   0.0000       0.112154         3.0519 
 116   0.0000       0.117522         3.1979 
 117   0.0000       0.120060         3.2670 
 118   0.0000       0.125233         3.4078 
 119   0.0000       0.129681         3.5288 
 120   0.0000       0.133916         3.6440 
 121   0.0000       0.136693         3.7196 
 122   0.0000       0.142414         3.8753 
 123   0.0000       0.144306         3.9268 
 124   0.0000       0.152484         4.1493 
 125   0.0000       0.156363         4.2548 
 126   0.0000       0.159090         4.3291 
 127   0.0000       0.163201         4.4409 
 128   0.0000       0.166422         4.5286 
 129   0.0000       0.173783         4.7289 
 130   0.0000       0.177814         4.8386 
 131   0.0000       0.179787         4.8923 
 132   0.0000       0.184695         5.0258 
 133   0.0000       0.187033         5.0894 
 134   0.0000       0.189049         5.1443 
 135   0.0000       0.190588         5.1862 
 136   0.0000       0.194116         5.2822 
 137   0.0000       0.195910         5.3310 
 138   0.0000       0.200727         5.4621 
 139   0.0000       0.207160         5.6371 
 140   0.0000       0.210105         5.7173 
 141   0.0000       0.211210         5.7473 
 142   0.0000       0.212855         5.7921 
 143   0.0000       0.215984         5.8772 
 144   0.0000       0.217707         5.9241 
 145   0.0000       0.221053         6.0152 
 146   0.0000       0.222872         6.0647 
 147   0.0000       0.227148         6.1810 
 148   0.0000       0.229141         6.2353 
 149   0.0000       0.231167         6.2904 
 150   0.0000       0.234268         6.3747 
 151   0.0000       0.239549         6.5184 
 152   0.0000       0.241662         6.5759 
 153   0.0000       0.242606         6.6016 
 154   0.0000       0.244342         6.6489 
 155   0.0000       0.247311         6.7297 
 156   0.0000       0.249012         6.7760 
 157   0.0000       0.251156         6.8343 
 158   0.0000       0.253195         6.8898 
 159   0.0000       0.257717         7.0128 
 160   0.0000       0.262982         7.1561 
 161   0.0000       0.264364         7.1937 
 162   0.0000       0.267841         7.2883 
 163   0.0000       0.269293         7.3278 
 164   0.0000       0.271457         7.3867 
 165   0.0000       0.273672         7.4470 
 166   0.0000       0.277386         7.5480 
 167   0.0000       0.279699         7.6110 
 168   0.0000       0.281349         7.6559 
 169   0.0000       0.283448         7.7130 
 170   0.0000       0.285538         7.7699 
 171   0.0000       0.288566         7.8523 
 172   0.0000       0.290366         7.9013 
 173   0.0000       0.293304         7.9812 
 174   0.0000       0.298061         8.1106 
 175   0.0000       0.301520         8.2048 
 176   0.0000       0.302316         8.2264 
 177   0.0000       0.307532         8.3684 
 178   0.0000       0.309953         8.4342 
 179   0.0000       0.311067         8.4646 
 180   0.0000       0.313814         8.5393 
 181   0.0000       0.317994         8.6531 
 182   0.0000       0.321753         8.7553 
 183   0.0000       0.323522         8.8035 
 184   0.0000       0.328633         8.9426 
 185   0.0000       0.332911         9.0590 
 186   0.0000       0.337674         9.1886 
 187   0.0000       0.339380         9.2350 
 188   0.0000       0.343509         9.3474 
 189   0.0000       0.349106         9.4997 
 190   0.0000       0.351178         9.5560 
 191   0.0000       0.353801         9.6274 
 192   0.0000       0.355357         9.6698 
 193   0.0000       0.363882         9.9017 
 194   0.0000       0.364791         9.9265 
 195   0.0000       0.372417        10.1340 
 196   0.0000       0.373837        10.1726 
 197   0.0000       0.375076        10.2063 
 198   0.0000       0.380864        10.3638 
 199   0.0000       0.384708        10.4684 
 200   0.0000       0.389743        10.6054 
 201   0.0000       0.390994        10.6395 
 202   0.0000       0.392656        10.6847 
 203   0.0000       0.398672        10.8484 
 204   0.0000       0.401193        10.9170 
 205   0.0000       0.402828        10.9615 
 206   0.0000       0.407265        11.0823 
 207   0.0000       0.413508        11.2521 
 208   0.0000       0.420986        11.4556 
 209   0.0000       0.423752        11.5309 
 210   0.0000       0.425206        11.5704 
 211   0.0000       0.429329        11.6826 
 212   0.0000       0.429755        11.6942 
 213   0.0000       0.435071        11.8389 
 214   0.0000       0.436080        11.8663 
 215   0.0000       0.440438        11.9849 
 216   0.0000       0.442154        12.0316 
 217   0.0000       0.448157        12.1950 
 218   0.0000       0.453394        12.3375 
 219   0.0000       0.459263        12.4972 
 220   0.0000       0.461778        12.5656 
 221   0.0000       0.463247        12.6056 
 222   0.0000       0.467800        12.7295 
 223   0.0000       0.478067        13.0089 
 224   0.0000       0.485358        13.2073 
 225   0.0000       0.486101        13.2275 
 226   0.0000       0.489160        13.3107 
 227   0.0000       0.494986        13.4693 
 228   0.0000       0.496957        13.5229 
 229   0.0000       0.502712        13.6795 
 230   0.0000       0.505626        13.7588 
 231   0.0000       0.509703        13.8697 
 232   0.0000       0.511324        13.9138 
 233   0.0000       0.515044        14.0150 
 234   0.0000       0.517501        14.0819 
 235   0.0000       0.524854        14.2820 
 236   0.0000       0.529038        14.3959 
 237   0.0000       0.530701        14.4411 
 238   0.0000       0.532517        14.4905 
 239   0.0000       0.537777        14.6337 
 240   0.0000       0.541079        14.7235 
 241   0.0000       0.545782        14.8515 
 242   0.0000       0.549960        14.9652 
 243   0.0000       0.558589        15.2000 
 244   0.0000       0.560731        15.2583 
 245   0.0000       0.562918        15.3178 
 246   0.0000       0.567036        15.4298 
 247   0.0000       0.571125        15.5411 
 248   0.0000       0.574000        15.6193 
 249   0.0000       0.579361        15.7652 
 250   0.0000       0.581785        15.8312 
 251   0.0000       0.583101        15.8670 
 252   0.0000       0.588134        16.0040 
 253   0.0000       0.594369        16.1736 
 254   0.0000       0.596527        16.2323 
 255   0.0000       0.600150        16.3309 
 256   0.0000       0.604866        16.4592 
 257   0.0000       0.605930        16.4882 
 258   0.0000       0.608209        16.5502 
 259   0.0000       0.612577        16.6691 
 260   0.0000       0.617934        16.8148 
 261   0.0000       0.619354        16.8535 
 262   0.0000       0.626197        17.0397 
 263   0.0000       0.627813        17.0837 
 264   0.0000       0.628589        17.1048 
 265   0.0000       0.633205        17.2304 
 266   0.0000       0.641388        17.4531 
 267   0.0000       0.642637        17.4870 
 268   0.0000       0.644920        17.5492 
 269   0.0000       0.647694        17.6247 
 270   0.0000       0.648514        17.6470 
 271   0.0000       0.654129        17.7998 
 272   0.0000       0.657874        17.9016 
 273   0.0000       0.659462        17.9449 
 274   0.0000       0.662110        18.0169 
 275   0.0000       0.665355        18.1052 
 276   0.0000       0.670592        18.2477 
 277   0.0000       0.673854        18.3365 
 278   0.0000       0.676480        18.4080 
 279   0.0000       0.683528        18.5998 
 280   0.0000       0.684550        18.6276 
 281   0.0000       0.684887        18.6367 
 282   0.0000       0.686417        18.6784 
 283   0.0000       0.691009        18.8033 
 284   0.0000       0.696193        18.9444 
 285   0.0000       0.697927        18.9916 
 286   0.0000       0.702530        19.1168 
 287   0.0000       0.708340        19.2749 
 288   0.0000       0.711087        19.3497 
 289   0.0000       0.714016        19.4294 
 290   0.0000       0.715714        19.4756 
 291   0.0000       0.723541        19.6886 
 292   0.0000       0.728676        19.8283 
 293   0.0000       0.733961        19.9721 
 294   0.0000       0.736654        20.0454 
 295   0.0000       0.743374        20.2282 
 296   0.0000       0.746701        20.3188 
 297   0.0000       0.748047        20.3554 
 298   0.0000       0.751475        20.4487 
 299   0.0000       0.752751        20.4834 
 300   0.0000       0.761675        20.7262 
 301   0.0000       0.763983        20.7890 
 302   0.0000       0.765699        20.8357 
 303   0.0000       0.772438        21.0191 
 304   0.0000       0.780300        21.2330 
 305   0.0000       0.783524        21.3208 
 306   0.0000       0.787369        21.4254 
 307   0.0000       0.789414        21.4811 
 308   0.0000       0.801112        21.7994 
 309   0.0000       0.803537        21.8653 
 310   0.0000       0.810858        22.0646 
 311   0.0000       0.812090        22.0981 
 312   0.0000       0.821489        22.3538 
 313   0.0000       0.826639        22.4940 
 314   0.0000       0.829160        22.5626 
 315   0.0000       0.833584        22.6830 
 316   0.0000       0.838323        22.8119 
 317   0.0000       0.848086        23.0776 
 318   0.0000       0.851505        23.1706 
 319   0.0000       0.856372        23.3031 
 320   0.0000       0.861517        23.4431 
 321   0.0000       0.864145        23.5146 
 322   0.0000       0.869477        23.6597 
 323   0.0000       0.875415        23.8213 
 324   0.0000       0.887249        24.1433 
 325   0.0000       0.890184        24.2231 
 326   0.0000       0.896240        24.3879 
 327   0.0000       0.900611        24.5069 
 328   0.0000       0.909746        24.7554 
 329   0.0000       0.913591        24.8601 
 330   0.0000       0.918040        24.9811 
 331   0.0000       0.933367        25.3982 
 332   0.0000       0.937765        25.5179 
 333   0.0000       0.948514        25.8104 
 334   0.0000       0.950172        25.8555 
 335   0.0000       0.961706        26.1694 
 336   0.0000       0.971880        26.4462 
 337   0.0000       0.976209        26.5640 
 338   0.0000       0.982627        26.7387 
 339   0.0000       0.997341        27.1390 
 340   0.0000       1.000187        27.2165 
 341   0.0000       1.003443        27.3051 
 342   0.0000       1.007451        27.4141 
 343   0.0000       1.020381        27.7660 
 344   0.0000       1.022839        27.8329 
 345   0.0000       1.027303        27.9543 
 346   0.0000       1.035165        28.1683 
 347   0.0000       1.038395        28.2562 
 348   0.0000       1.040416        28.3111 
 349   0.0000       1.057246        28.7691 
 350   0.0000       1.064575        28.9686 
 351   0.0000       1.065255        28.9871 
 352   0.0000       1.073040        29.1989 
 353   0.0000       1.080084        29.3906 
 354   0.0000       1.086620        29.5684 
 355   0.0000       1.090848        29.6835 
 356   0.0000       1.105214        30.0744 
 357   0.0000       1.115320        30.3494 
 358   0.0000       1.118061        30.4240 
 359   0.0000       1.127437        30.6791 
 360   0.0000       1.135167        30.8895 
 361   0.0000       1.136818        30.9344 
 362   0.0000       1.158615        31.5275 
 363   0.0000       1.160638        31.5826 
 364   0.0000       1.172228        31.8979 
 365   0.0000       1.174017        31.9466 
 366   0.0000       1.177754        32.0483 
 367   0.0000       1.184244        32.2249 
 368   0.0000       1.192336        32.4451 
 369   0.0000       1.195503        32.5313 
 370   0.0000       1.201514        32.6949 
 371   0.0000       1.206959        32.8430 
 372   0.0000       1.213090        33.0099 
 373   0.0000       1.229518        33.4569 
 374   0.0000       1.231918        33.5222 
 375   0.0000       1.239659        33.7328 
 376   0.0000       1.241364        33.7792 
 377   0.0000       1.245890        33.9024 
 378   0.0000       1.253463        34.1085 
 379   0.0000       1.263178        34.3728 
 380   0.0000       1.275504        34.7082 
 381   0.0000       1.278012        34.7765 
 382   0.0000       1.289699        35.0945 
 383   0.0000       1.299289        35.3554 
 384   0.0000       1.304309        35.4920 
 385   0.0000       1.313640        35.7460 
 386   0.0000       1.315772        35.8040 
 387   0.0000       1.320702        35.9381 
 388   0.0000       1.334781        36.3212 
 389   0.0000       1.340653        36.4810 
 390   0.0000       1.343550        36.5598 
 391   0.0000       1.353294        36.8250 
 392   0.0000       1.358628        36.9702 
 393   0.0000       1.366906        37.1954 
 394   0.0000       1.370529        37.2940 
 395   0.0000       1.375313        37.4242 
 396   0.0000       1.381298        37.5870 
 397   0.0000       1.391739        37.8711 
 398   0.0000       1.392980        37.9049 
 399   0.0000       1.402002        38.1504 
 400   0.0000       1.419021        38.6135 
 401   0.0000       1.423993        38.7488 
 402   0.0000       1.434383        39.0315 
 403   0.0000       1.438799        39.1517 
 404   0.0000       1.444321        39.3020 
 405   0.0000       1.461418        39.7672 
 406   0.0000       1.465208        39.8703 
 407   0.0000       1.470650        40.0184 
 408   0.0000       1.481236        40.3065 
 409   0.0000       1.496478        40.7212 
 410   0.0000       1.499713        40.8093 
 411   0.0000       1.517754        41.3002 
 412   0.0000       1.523699        41.4620 
 413   0.0000       1.538311        41.8596 
 414   0.0000       1.542063        41.9617 
 415   0.0000       1.552887        42.2562 
 416   0.0000       1.557249        42.3749 
 417   0.0000       1.571411        42.7603 
 418   0.0000       1.578409        42.9507 
 419   0.0000       1.581071        43.0231 
 420   0.0000       1.584543        43.1176 
 421   0.0000       1.589595        43.2551 
 422   0.0000       1.595257        43.4091 
 423   0.0000       1.598112        43.4868 
 424   0.0000       1.605876        43.6981 
 425   0.0000       1.619927        44.0804 
 426   0.0000       1.625720        44.2381 
 427   0.0000       1.629649        44.3450 
 428   0.0000       1.637507        44.5588 
 429   0.0000       1.649725        44.8913 
 430   0.0000       1.651204        44.9315 
 431   0.0000       1.662528        45.2397 
 432   0.0000       1.674159        45.5562 
 433   0.0000       1.676781        45.6275 
 434   0.0000       1.689943        45.9857 
 435   0.0000       1.694721        46.1157 
 436   0.0000       1.705413        46.4066 
 437   0.0000       1.707933        46.4752 
 438   0.0000       1.721430        46.8425 
 439   0.0000       1.733812        47.1794 
 440   0.0000       1.747436        47.5501 
 441   0.0000       1.753300        47.7097 
 442   0.0000       1.768094        48.1123 
 443   0.0000       1.785501        48.5859 
 444   0.0000       1.789190        48.6863 
 445   0.0000       1.796912        48.8965 
 446   0.0000       1.812321        49.3158 
 447   0.0000       1.817663        49.4611 
 448   0.0000       1.826708        49.7072 
 449   0.0000       1.835554        49.9480 
 450   0.0000       1.870332        50.8943 
 451   0.0000       1.880199        51.1628 
 452   0.0000       1.897365        51.6299 
 453   0.0000       1.912160        52.0325 
 454   0.0000       1.922191        52.3055 
 455   0.0000       1.923554        52.3426 
 456   0.0000       1.938215        52.7415 
 457   0.0000       1.943066        52.8735 
 458   0.0000       1.947079        52.9827 
 459   0.0000       1.949927        53.0602 
 460   0.0000       1.965019        53.4709 
 461   0.0000       1.971025        53.6343 
 462   0.0000       1.976139        53.7735 
 463   0.0000       1.980980        53.9052 
 464   0.0000       1.984790        54.0089 
 465   0.0000       1.991663        54.1959 
 466   0.0000       1.995969        54.3131 
 467   0.0000       2.001849        54.4731 
 468   0.0000       2.012421        54.7608 
 469   0.0000       2.014551        54.8187 
 470   0.0000       2.022291        55.0293 
 471   0.0000       2.034520        55.3621 
 472   0.0000       2.039658        55.5019 
 473   0.0000       2.047324        55.7105 
 474   0.0000       2.050584        55.7992 
 475   0.0000       2.053697        55.8839 
 476   0.0000       2.061673        56.1010 
 477   0.0000       2.070859        56.3509 
 478   0.0000       2.073081        56.4114 
 479   0.0000       2.084107        56.7114 
 480   0.0000       2.092785        56.9476 
 481   0.0000       2.097207        57.0679 
 482   0.0000       2.103413        57.2368 
 483   0.0000       2.105567        57.2954 
 484   0.0000       2.109411        57.4000 
 485   0.0000       2.113336        57.5068 
 486   0.0000       2.120926        57.7133 
 487   0.0000       2.124026        57.7977 
 488   0.0000       2.142652        58.3045 
 489   0.0000       2.144828        58.3637 
 490   0.0000       2.147549        58.4378 
 491   0.0000       2.157677        58.7134 
 492   0.0000       2.157889        58.7191 
 493   0.0000       2.171859        59.0993 
 494   0.0000       2.183884        59.4265 
 495   0.0000       2.187706        59.5305 
 496   0.0000       2.198202        59.8161 
 497   0.0000       2.207709        60.0748 
 498   0.0000       2.209629        60.1271 
 499   0.0000       2.218202        60.3604 
 500   0.0000       2.237207        60.8775 
 501   0.0000       2.240993        60.9805 
 502   0.0000       2.246121        61.1201 
 503   0.0000       2.254643        61.3520 
 504   0.0000       2.267704        61.7074 
 505   0.0000       2.281719        62.0887 
 506   0.0000       2.296309        62.4857 
 507   0.0000       2.303245        62.6745 
 508   0.0000       2.307892        62.8009 
 509   0.0000       2.318826        63.0985 
 510   0.0000       2.336936        63.5913 
 511   0.0000       2.341128        63.7053 
 512   0.0000       2.357916        64.1621 
 513   0.0000       2.378766        64.7295 
 514   0.0000       2.387974        64.9801 
 515   0.0000       2.401321        65.3433 
 516   0.0000       2.403062        65.3906 
 517   0.0000       2.425346        65.9970 
 518   0.0000       2.432283        66.1858 
 519   0.0000       2.445436        66.5437 
 520   0.0000       2.455768        66.8248 
 521   0.0000       2.477573        67.4182 
 522   0.0000       2.492320        67.8195 
 523   0.0000       2.527175        68.7679 
 524   0.0000       2.530117        68.8480 
 525   0.0000       2.542817        69.1936 
 526   0.0000       2.547455        69.3198 
 527   0.0000       2.553903        69.4952 
 528   0.0000       2.565570        69.8127 
 529   0.0000       2.568059        69.8804 
 530   0.0000       2.571012        69.9608 
 531   0.0000       2.579453        70.1905 
 532   0.0000       2.589956        70.4763 
 533   0.0000       2.598613        70.7119 
 534   0.0000       2.624205        71.4082 
 535   0.0000       2.631713        71.6126 
 536   0.0000       2.652459        72.1771 
 537   0.0000       2.660925        72.4075 
 538   0.0000       2.670628        72.6715 
 539   0.0000       2.685083        73.0648 
 540   0.0000       2.711988        73.7969 
 541   0.0000       2.728769        74.2536 
 542   0.0000       2.731050        74.3156 
 543   0.0000       2.747194        74.7550 
 544   0.0000       2.765101        75.2422 
 545   0.0000       2.770723        75.3952 
 546   0.0000       2.789242        75.8991 
 547   0.0000       2.796440        76.0950 
 548   0.0000       2.809139        76.4406 
 549   0.0000       2.812226        76.5246 
 550   0.0000       2.831431        77.0472 
 551   0.0000       2.838569        77.2414 
 552   0.0000       2.850685        77.5711 
 553   0.0000       2.855209        77.6942 
 554   0.0000       2.862736        77.8990 
 555   0.0000       2.873432        78.1901 
 556   0.0000       2.881589        78.4120 
 557   0.0000       2.888443        78.5985 
 558   0.0000       2.890772        78.6619 
 559   0.0000       2.898085        78.8609 
 560   0.0000       2.912934        79.2650 
 561   0.0000       2.914265        79.3012 
 562   0.0000       2.931556        79.7717 
 563   0.0000       2.941486        80.0419 
 564   0.0000       2.948277        80.2267 
 565   0.0000       2.961043        80.5741 
 566   0.0000       2.967011        80.7365 
 567   0.0000       2.972225        80.8783 
 568   0.0000       2.992976        81.4430 
 569   0.0000       2.999330        81.6159 
 570   0.0000       3.006426        81.8090 
 571   0.0000       3.020199        82.1838 
 572   0.0000       3.039186        82.7005 
 573   0.0000       3.045082        82.8609 
 574   0.0000       3.048594        82.9565 
 575   0.0000       3.059346        83.2490 
 576   0.0000       3.062588        83.3372 
 577   0.0000       3.074647        83.6654 
 578   0.0000       3.078454        83.7690 
 579   0.0000       3.093855        84.1881 
 580   0.0000       3.099313        84.3366 
 581   0.0000       3.102663        84.4278 
 582   0.0000       3.112577        84.6975 
 583   0.0000       3.127519        85.1041 
 584   0.0000       3.130914        85.1965 
 585   0.0000       3.142028        85.4989 
 586   0.0000       3.147976        85.6608 
 587   0.0000       3.158377        85.9438 
 588   0.0000       3.166182        86.1562 
 589   0.0000       3.178694        86.4967 
 590   0.0000       3.189784        86.7984 
 591   0.0000       3.198627        87.0391 
 592   0.0000       3.212474        87.4159 
 593   0.0000       3.223075        87.7043 
 594   0.0000       3.226285        87.7917 
 595   0.0000       3.251157        88.4685 
 596   0.0000       3.257287        88.6353 
 597   0.0000       3.266733        88.8923 
 598   0.0000       3.274865        89.1136 
 599   0.0000       3.283998        89.3621 
 600   0.0000       3.287349        89.4533 
 601   0.0000       3.304951        89.9323 
 602   0.0000       3.317302        90.2684 
 603   0.0000       3.324978        90.4773 
 604   0.0000       3.326912        90.5299 
 605   0.0000       3.338075        90.8336 
 606   0.0000       3.348405        91.1147 
 607   0.0000       3.352484        91.2257 
 608   0.0000       3.371265        91.7368 
 609   0.0000       3.378532        91.9345 
 610   0.0000       3.383925        92.0813 
 611   0.0000       3.391862        92.2973 
 612   0.0000       3.402989        92.6000 
 613   0.0000       3.412099        92.8479 
 614   0.0000       3.427836        93.2762 
 615   0.0000       3.429034        93.3088 
 616   0.0000       3.446632        93.7876 
 617   0.0000       3.454402        93.9991 
 618   0.0000       3.456499        94.0561 
 619   0.0000       3.476742        94.6070 
 620   0.0000       3.479364        94.6783 
 621   0.0000       3.491158        94.9992 
 622   0.0000       3.499161        95.2170 
 623   0.0000       3.503118        95.3247 
 624   0.0000       3.516591        95.6913 
 625   0.0000       3.528326        96.0106 
 626   0.0000       3.532820        96.1329 
 627   0.0000       3.546454        96.5039 
 628   0.0000       3.555075        96.7385 
 629   0.0000       3.564243        96.9880 
 630   0.0000       3.571253        97.1787 
 631   0.0000       3.580192        97.4220 
 632   0.0000       3.583625        97.5154 
 633   0.0000       3.589179        97.6665 
 634   0.0000       3.594451        97.8100 
 635   0.0000       3.607676        98.1699 
 636   0.0000       3.610705        98.2523 
 637   0.0000       3.620115        98.5083 
 638   0.0000       3.629872        98.7738 
 639   0.0000       3.648237        99.2736 
 640   0.0000       3.651278        99.3563 
 641   0.0000       3.655426        99.4692 
 642   0.0000       3.681809       100.1871 
 643   0.0000       3.687136       100.3321 
 644   0.0000       3.700487       100.6954 
 645   0.0000       3.711000       100.9814 
 646   0.0000       3.713373       101.0460 
 647   0.0000       3.727367       101.4268 
 648   0.0000       3.734031       101.6081 
 649   0.0000       3.764028       102.4244 
 650   0.0000       3.767491       102.5186 
 651   0.0000       3.785526       103.0094 
 652   0.0000       3.789710       103.1232 
 653   0.0000       3.801128       103.4339 
 654   0.0000       3.810834       103.6981 
 655   0.0000       3.814689       103.8030 
 656   0.0000       3.844477       104.6135 
 657   0.0000       3.850803       104.7857 
 658   0.0000       3.862649       105.1080 
 659   0.0000       3.878735       105.5457 
 660   0.0000       3.888616       105.8146 
 661   0.0000       3.900731       106.1443 
 662   0.0000       3.915684       106.5512 
 663   0.0000       3.932393       107.0059 
 664   0.0000       3.951451       107.5244 
 665   0.0000       3.964303       107.8742 
 666   0.0000       3.979643       108.2916 
 667   0.0000       3.991211       108.6064 
 668   0.0000       4.001993       108.8998 
 669   0.0000       4.011300       109.1530 
 670   0.0000       4.017018       109.3086 
 671   0.0000       4.033329       109.7525 
 672   0.0000       4.047465       110.1371 
 673   0.0000       4.056374       110.3796 
 674   0.0000       4.059938       110.4765 
 675   0.0000       4.069572       110.7387 
 676   0.0000       4.077123       110.9441 
 677   0.0000       4.086202       111.1912 
 678   0.0000       4.096043       111.4590 
 679   0.0000       4.107269       111.7645 
 680   0.0000       4.111622       111.8829 
 681   0.0000       4.114799       111.9694 
 682   0.0000       4.117402       112.0402 
 683   0.0000       4.135746       112.5394 
 684   0.0000       4.141406       112.6934 
 685   0.0000       4.151200       112.9599 
 686   0.0000       4.158374       113.1551 
 687   0.0000       4.172379       113.5362 
 688   0.0000       4.172572       113.5415 
 689   0.0000       4.177850       113.6851 
 690   0.0000       4.188504       113.9750 
 691   0.0000       4.196595       114.1952 
 692   0.0000       4.198458       114.2459 
 693   0.0000       4.207493       114.4917 
 694   0.0000       4.223806       114.9356 
 695   0.0000       4.229554       115.0920 
 696   0.0000       4.236268       115.2747 
 697   0.0000       4.250622       115.6653 
 698   0.0000       4.271481       116.2329 
 699   0.0000       4.280586       116.4807 
 700   0.0000       4.292837       116.8140 
 701   0.0000       4.305206       117.1506 
 702   0.0000       4.311119       117.3115 
 703   0.0000       4.317933       117.4969 
 704   0.0000       4.326953       117.7424 
 705   0.0000       4.347090       118.2903 
 706   0.0000       4.357998       118.5871 
 707   0.0000       4.363927       118.7485 
 708   0.0000       4.367283       118.8398 
 709   0.0000       4.378925       119.1566 
 710   0.0000       4.392244       119.5190 
 711   0.0000       4.408863       119.9713 
 712   0.0000       4.430421       120.5579 
 713   0.0000       4.440327       120.8275 
 714   0.0000       4.446385       120.9923 
 715   0.0000       4.468052       121.5819 
 716   0.0000       4.486401       122.0812 
 717   0.0000       4.503143       122.5367 
 718   0.0000       4.514575       122.8478 
 719   0.0000       4.523801       123.0989 
 720   0.0000       4.540128       123.5432 
 721   0.0000       4.553004       123.8935 
 722   0.0000       4.564457       124.2052 
 723   0.0000       4.577546       124.5614 
 724   0.0000       4.608213       125.3958 
 725   0.0000       4.629398       125.9723 
 726   0.0000       4.637626       126.1962 
 727   0.0000       4.660066       126.8069 
 728   0.0000       4.698510       127.8529 
 729   0.0000       4.750790       129.2756 
 730   0.0000       4.754205       129.3685 
 731   0.0000       4.772638       129.8701 
 732   0.0000       4.793834       130.4469 
 733   0.0000       4.813216       130.9743 
 734   0.0000       4.824873       131.2915 
 735   0.0000       4.840185       131.7081 
 736   0.0000       4.845379       131.8495 
 737   0.0000       4.860128       132.2508 
 738   0.0000       4.866022       132.4112 
 739   0.0000       4.890263       133.0708 
 740   0.0000       4.903985       133.4442 
 741   0.0000       4.911283       133.6428 
 742   0.0000       4.919988       133.8797 
 743   0.0000       4.946185       134.5925 
 744   0.0000       4.966434       135.1435 
 745   0.0000       5.004859       136.1891 
 746   0.0000       5.068743       137.9275 
 747   0.0000       5.111390       139.0880 
 748   0.0000       5.141343       139.9031 
 749   0.0000       5.159848       140.4066 
 750   0.0000       5.163720       140.5120 
 751   0.0000       5.196883       141.4144 
 752   0.0000       5.202511       141.5675 
 753   0.0000       5.210629       141.7884 
 754   0.0000       5.217722       141.9814 
 755   0.0000       5.227660       142.2519 
 756   0.0000       5.231955       142.3687 
 757   0.0000       5.252712       142.9336 
 758   0.0000       5.266746       143.3154 
 759   0.0000       5.278146       143.6256 
 760   0.0000       5.284043       143.7861 
 761   0.0000       5.301448       144.2597 
 762   0.0000       5.311787       144.5411 
 763   0.0000       5.331622       145.0808 
 764   0.0000       5.339686       145.3003 
 765   0.0000       5.358247       145.8053 
 766   0.0000       5.375418       146.2726 
 767   0.0000       5.379103       146.3728 
 768   0.0000       5.405028       147.0783 
 769   0.0000       5.426139       147.6528 
 770   0.0000       5.443770       148.1325 
 771   0.0000       5.469437       148.8309 
 772   0.0000       5.476474       149.0224 
 773   0.0000       5.495628       149.5436 
 774   0.0000       5.499193       149.6407 
 775   0.0000       5.506861       149.8493 
 776   0.0000       5.521035       150.2350 
 777   0.0000       5.537168       150.6740 
 778   0.0000       5.544047       150.8612 
 779   0.0000       5.573249       151.6558 
 780   0.0000       5.585940       152.0011 
 781   0.0000       5.593350       152.2028 
 782   0.0000       5.603731       152.4853 
 783   0.0000       5.624715       153.0563 
 784   0.0000       5.658300       153.9702 
 785   0.0000       5.669694       154.2802 
 786   0.0000       5.701046       155.1334 
 787   0.0000       5.726516       155.8264 
 788   0.0000       5.733439       156.0148 
 789   0.0000       5.766176       156.9056 
 790   0.0000       5.773035       157.0923 
 791   0.0000       5.782193       157.3415 
 792   0.0000       5.790803       157.5758 
 793   0.0000       5.803661       157.9256 
 794   0.0000       5.814482       158.2201 
 795   0.0000       5.832728       158.7166 
 796   0.0000       5.853443       159.2803 
 797   0.0000       5.874287       159.8475 
 798   0.0000       5.907518       160.7517 
 799   0.0000       5.920149       161.0954 
 800   0.0000       6.018167       163.7627 
 801   0.0000       6.081118       165.4756 
 802   0.0000       6.254722       170.1996 
 803   0.0000       6.303792       171.5349 
 804   0.0000       6.326165       172.1437 
 805   0.0000       6.387133       173.8027 
 806   0.0000       6.481011       176.3573 
 807   0.0000       6.548904       178.2047 
 808   0.0000       6.565528       178.6571 
 809   0.0000       6.592987       179.4043 
 810   0.0000       6.640420       180.6950 
 811   0.0000       6.688474       182.0026 
 812   0.0000       6.729899       183.1299 
 813   0.0000       6.800130       185.0410 
 814   0.0000       6.852317       186.4610 
 815   0.0000       6.890154       187.4906 
 816   0.0000       6.931731       188.6220 
 817   0.0000       7.007342       190.6795 
 818   0.0000       7.027925       191.2396 
 819   0.0000       7.157819       194.7741 
 820   0.0000       7.196725       195.8328 
 821   0.0000       7.232545       196.8075 
 822   0.0000       7.286832       198.2848 
 823   0.0000       7.541532       205.2155 
 824   0.0000       7.667253       208.6366 
 825   0.0000       8.085217       220.0099 
 826   0.0000       8.102591       220.4827 
 827   0.0000       8.117899       220.8993 
 828   0.0000       8.129702       221.2204 
 829   0.0000       8.131127       221.2592 
 830   0.0000       8.139589       221.4895 
 831   0.0000       8.154217       221.8875 
 832   0.0000       8.173750       222.4191 
 833   0.0000       8.175308       222.4614 
 834   0.0000       8.193569       222.9584 
 835   0.0000       8.215674       223.5599 
 836   0.0000       8.226803       223.8627 
 837   0.0000       8.250979       224.5205 
 838   0.0000       8.270839       225.0610 
 839   0.0000       8.300980       225.8812 
 840   0.0000      10.778781       293.3055 
 841   0.0000      10.834630       294.8253 
 842   0.0000      10.858713       295.4806 
 843   0.0000      10.885101       296.1987 
 844   0.0000      10.916598       297.0557 
 845   0.0000      10.983923       298.8877 
 846   0.0000      11.072440       301.2964 
 847   0.0000      11.095211       301.9160 
 848   0.0000      11.151608       303.4507 
 849   0.0000      23.065079       627.6327 
 850   0.0000      23.269711       633.2010 
 851   0.0000      23.492142       639.2537 
 852   0.0000      23.595824       642.0750 
 853   0.0000      23.703191       644.9966 
 854   0.0000      23.754219       646.3852 
 855   0.0000      23.817703       648.1127 
 856   0.0000      23.919581       650.8849 
 857   0.0000      24.452257       665.3797 
 858   0.0000      25.773855       701.3422 
 859   0.0000      25.889931       704.5008 
 860   0.0000      26.293309       715.4773 
 861   0.0000      31.378694       853.8577 
 862   0.0000      32.938964       896.3148 
 863   0.0000      33.629666       915.1097 
 864   0.0000      44.336470      1206.4567 
 865   0.0000      44.446962      1209.4633 
 866   0.0000      44.766498      1218.1583 
 867   0.0000      44.916688      1222.2452 
 868   0.0000     205.434557      5590.1585 

                    ********************************
                    * MULLIKEN POPULATION ANALYSIS *
                    ********************************

-----------------------
MULLIKEN ATOMIC CHARGES
-----------------------
   0 C :    2.469331
   1 C :   -2.101931
   2 C :   -0.455690
   3 H :    0.099073
   4 H :    0.073851
   5 H :    0.054216
   6 C :    2.328120
   7 O :   -0.476476
   8 C :    0.726606
   9 O :   -0.590410
  10 C :    0.119309
  11 O :   -0.641011
  12 C :   -0.127188
  13 H :    0.065780
  14 H :    0.022818
  15 H :    0.113704
  16 C :   -0.185400
  17 H :    0.023835
  18 H :    0.046940
  19 H :    0.082468
  20 C :   -0.845772
  21 H :    0.094796
  22 H :    0.154477
  23 H :    0.144567
  24 Au:    0.090369
  25 Cl:   -0.471829
  26 Cl:   -0.340505
  27 Cl:   -0.474049
Sum of atomic charges:   -0.0000000

--------------------------------
MULLIKEN REDUCED ORBITAL CHARGES
--------------------------------
  0 C s       :     1.568230  s :     1.568230
      pz      :     1.377418  p :     1.898897
      px      :     0.702210
      py      :    -0.180731
      dz2     :     0.009121  d :     0.053228
      dxz     :     0.004360
      dyz     :    -0.004235
      dx2y2   :    -0.003227
      dxy     :     0.047210
      f0      :     0.000748  f :     0.010314
      f+1     :     0.000671
      f-1     :     0.002698
      f+2     :     0.001438
      f-2     :     0.001130
      f+3     :     0.001642
      f-3     :     0.001987
  1 C s       :     4.999734  s :     4.999734
      pz      :     1.707443  p :     3.233929
      px      :     0.514372
      py      :     1.012115
      dz2     :    -0.049138  d :    -0.142338
      dxz     :    -0.041398
      dyz     :    -0.001919
      dx2y2   :     0.025899
      dxy     :    -0.075781
      f0      :     0.000789  f :     0.010605
      f+1     :     0.001409
      f-1     :     0.001997
      f+2     :     0.001318
      f-2     :     0.001534
      f+3     :     0.001410
      f-3     :     0.002148
  2 C s       :     3.444280  s :     3.444280
      pz      :     0.989017  p :     2.949688
      px      :     1.035232
      py      :     0.925439
      dz2     :     0.026816  d :     0.058218
      dxz     :    -0.006220
      dyz     :     0.004468
      dx2y2   :     0.018873
      dxy     :     0.014281
      f0      :     0.000526  f :     0.003504
      f+1     :     0.000398
      f-1     :     0.000545
      f+2     :     0.000457
      f-2     :     0.000394
      f+3     :     0.000464
      f-3     :     0.000719
  3 H s       :     0.882957  s :     0.882957
      pz      :    -0.007036  p :     0.016452
      px      :     0.020341
      py      :     0.003147
      dz2     :     0.000076  d :     0.001519
      dxz     :     0.000403
      dyz     :     0.000208
      dx2y2   :     0.000625
      dxy     :     0.000207
  4 H s       :     0.911713  s :     0.911713
      pz      :     0.003941  p :     0.012905
      px      :    -0.001336
      py      :     0.010301
      dz2     :     0.000447  d :     0.001530
      dxz     :     0.000182
      dyz     :     0.000174
      dx2y2   :     0.000388
      dxy     :     0.000339
  5 H s       :     0.915689  s :     0.915689
      pz      :     0.018674  p :     0.028603
      px      :    -0.008663
      py      :     0.018592
      dz2     :     0.000280  d :     0.001492
      dxz     :     0.000464
      dyz     :     0.000614
      dx2y2   :     0.000047
      dxy     :     0.000086
  6 C s       :     2.704534  s :     2.704534
      pz      :     0.402765  p :     0.980399
      px      :     0.232417
      py      :     0.345218
      dz2     :    -0.007164  d :    -0.027755
      dxz     :    -0.019206
      dyz     :     0.134835
      dx2y2   :    -0.109597
      dxy     :    -0.026622
      f0      :     0.002105  f :     0.014701
      f+1     :     0.003191
      f-1     :     0.001315
      f+2     :     0.002221
      f-2     :     0.002432
      f+3     :     0.001594
      f-3     :     0.001843
  7 O s       :     3.934898  s :     3.934898
      pz      :     1.563536  p :     4.506716
      px      :     1.448915
      py      :     1.494265
      dz2     :     0.016019  d :     0.032788
      dxz     :     0.004353
      dyz     :     0.000820
      dx2y2   :     0.011611
      dxy     :    -0.000015
      f0      :     0.000241  f :     0.002074
      f+1     :     0.000373
      f-1     :     0.000192
      f+2     :     0.000362
      f-2     :     0.000368
      f+3     :     0.000263
      f-3     :     0.000275
  8 C s       :     3.091679  s :     3.091679
      pz      :     0.687593  p :     1.914796
      px      :     0.653742
      py      :     0.573461
      dz2     :     0.018723  d :     0.241892
      dxz     :     0.007429
      dyz     :     0.094196
      dx2y2   :     0.009863
      dxy     :     0.111682
      f0      :     0.001762  f :     0.025027
      f+1     :     0.001419
      f-1     :     0.004674
      f+2     :     0.003458
      f-2     :     0.003728
      f+3     :     0.004446
      f-3     :     0.005539
  9 O s       :     4.066021  s :     4.066021
      pz      :     1.557047  p :     4.483424
      px      :     1.616194
      py      :     1.310183
      dz2     :     0.003395  d :     0.039061
      dxz     :     0.002984
      dyz     :     0.014585
      dx2y2   :     0.004617
      dxy     :     0.013480
      f0      :     0.000168  f :     0.001904
      f+1     :     0.000024
      f-1     :     0.000365
      f+2     :     0.000340
      f-2     :     0.000121
      f+3     :     0.000500
      f-3     :     0.000386
 10 C s       :     3.661417  s :     3.661417
      pz      :     0.613689  p :     1.932527
      px      :     0.693911
      py      :     0.624927
      dz2     :     0.055896  d :     0.268486
      dxz     :     0.019639
      dyz     :     0.049964
      dx2y2   :     0.004322
      dxy     :     0.138665
      f0      :     0.001137  f :     0.018261
      f+1     :     0.003431
      f-1     :     0.001077
      f+2     :     0.002264
      f-2     :     0.003275
      f+3     :     0.002365
      f-3     :     0.004712
 11 O s       :     4.159527  s :     4.159527
      pz      :     1.304993  p :     4.442129
      px      :     1.285712
      py      :     1.851424
      dz2     :     0.013019  d :     0.037488
      dxz     :     0.007393
      dyz     :     0.001121
      dx2y2   :     0.007153
      dxy     :     0.008804
      f0      :     0.000087  f :     0.001867
      f+1     :     0.000524
      f-1     :     0.000020
      f+2     :     0.000298
      f-2     :     0.000283
      f+3     :     0.000310
      f-3     :     0.000344
 12 C s       :     3.132321  s :     3.132321
      pz      :     1.003617  p :     2.921624
      px      :     1.003105
      py      :     0.914902
      dz2     :     0.017285  d :     0.069431
      dxz     :     0.020109
      dyz     :     0.003481
      dx2y2   :     0.020220
      dxy     :     0.008337
      f0      :     0.000754  f :     0.003812
      f+1     :     0.000290
      f-1     :     0.000370
      f+2     :     0.000405
      f-2     :     0.000530
      f+3     :     0.000838
      f-3     :     0.000625
 13 H s       :     0.905489  s :     0.905489
      pz      :     0.022274  p :     0.027211
      px      :    -0.007361
      py      :     0.012297
      dz2     :     0.000211  d :     0.001520
      dxz     :     0.000633
      dyz     :     0.000644
      dx2y2   :     0.000016
      dxy     :     0.000016
 14 H s       :     0.947284  s :     0.947284
      pz      :     0.006359  p :     0.028352
      px      :     0.008861
      py      :     0.013132
      dz2     :     0.000286  d :     0.001546
      dxz     :     0.000132
      dyz     :     0.000314
      dx2y2   :     0.000517
      dxy     :     0.000297
 15 H s       :     0.866546  s :     0.866546
      pz      :     0.005472  p :     0.018264
      px      :     0.011627
      py      :     0.001164
      dz2     :     0.000201  d :     0.001487
      dxz     :     0.000480
      dyz     :     0.000026
      dx2y2   :     0.000159
      dxy     :     0.000621
 16 C s       :     3.155321  s :     3.155321
      pz      :     1.002536  p :     2.972305
      px      :     0.979948
[...]
      dyz     :     0.088904
      dx2y2   :     0.085506
      dxy     :     0.131876
      f0      :     0.004405  f :     0.034025
      f+1     :     0.003426
      f-1     :     0.005161
      f+2     :     0.005920
      f-2     :     0.004145
      f+3     :     0.004226
      f-3     :     0.006741
  3 H s       :     0.680464  s :     0.680464
      pz      :     0.073570  p :     0.279466
      px      :     0.116789
      py      :     0.089107
      dz2     :     0.002818  d :     0.029455
      dxz     :     0.006358
      dyz     :     0.003060
      dx2y2   :     0.009028
      dxy     :     0.008190
  4 H s       :     0.682801  s :     0.682801
      pz      :     0.101150  p :     0.304239
      px      :     0.115945
      py      :     0.087143
      dz2     :     0.006129  d :     0.029484
      dxz     :     0.006711
      dyz     :     0.003958
      dx2y2   :     0.006362
      dxy     :     0.006324
  5 H s       :     0.689923  s :     0.689923
      pz      :     0.127146  p :     0.274973
      px      :     0.078134
      py      :     0.069692
      dz2     :     0.010505  d :     0.029289
      dxz     :     0.009147
      dyz     :     0.007983
      dx2y2   :     0.000737
      dxy     :     0.000918
  6 C s       :     2.582577  s :     2.582577
      pz      :     0.808911  p :     2.441917
      px      :     0.766289
      py      :     0.866717
      dz2     :     0.261232  d :     1.244900
      dxz     :     0.290241
      dyz     :     0.216411
      dx2y2   :     0.221209
      dxy     :     0.255808
      f0      :     0.013433  f :     0.094816
      f+1     :     0.018473
      f-1     :     0.009755
      f+2     :     0.015302
      f-2     :     0.015126
      f+3     :     0.010941
      f-3     :     0.011785
  7 O s       :     3.158346  s :     3.158346
      pz      :     1.411860  p :     4.246215
      px      :     1.357551
      py      :     1.476804
      dz2     :     0.101784  d :     0.536427
      dxz     :     0.107570
      dyz     :     0.090568
      dx2y2   :     0.118481
      dxy     :     0.118024
      f0      :     0.000755  f :     0.006630
      f+1     :     0.000853
      f-1     :     0.000735
      f+2     :     0.000927
      f-2     :     0.001159
      f+3     :     0.001025
      f-3     :     0.001177
  8 C s       :     2.622502  s :     2.622502
      pz      :     0.738535  p :     2.354328
      px      :     0.747189
      py      :     0.868604
      dz2     :     0.208714  d :     1.335428
      dxz     :     0.138390
      dyz     :     0.322633
      dx2y2   :     0.318312
      dxy     :     0.347380
      f0      :     0.012399  f :     0.154920
      f+1     :     0.006475
      f-1     :     0.029772
      f+2     :     0.018881
      f-2     :     0.023842
      f+3     :     0.029540
      f-3     :     0.034011
  9 O s       :     3.304222  s :     3.304222
      pz      :     1.391702  p :     4.291552
      px      :     1.418432
      py      :     1.481418
      dz2     :     0.038786  d :     0.258129
      dxz     :     0.018149
      dyz     :     0.063277
      dx2y2   :     0.071786
      dxy     :     0.066131
      f0      :     0.000618  f :     0.006627
      f+1     :     0.000078
      f-1     :     0.001179
      f+2     :     0.001120
      f-2     :     0.000420
      f+3     :     0.001512
      f-3     :     0.001700
 10 C s       :     2.645535  s :     2.645535
      pz      :     0.687403  p :     2.378496
      px      :     0.829674
      py      :     0.861419
      dz2     :     0.167409  d :     1.233067
      dxz     :     0.219950
      dyz     :     0.212755
      dx2y2   :     0.278221
      dxy     :     0.354731
      f0      :     0.008344  f :     0.110625
      f+1     :     0.016472
      f-1     :     0.006452
      f+2     :     0.015664
      f-2     :     0.020138
      f+3     :     0.014292
      f-3     :     0.029262
 11 O s       :     3.321395  s :     3.321395
      pz      :     1.289385  p :     4.296774
      px      :     1.420359
      py      :     1.587030
      dz2     :     0.028530  d :     0.272601
      dxz     :     0.072260
      dyz     :     0.039762
      dx2y2   :     0.049977
      dxy     :     0.082073
      f0      :     0.000499  f :     0.006562
      f+1     :     0.001098
      f-1     :     0.000036
      f+2     :     0.001522
      f-2     :     0.001213
      f+3     :     0.000964
      f-3     :     0.001231
 12 C s       :     2.623564  s :     2.623564
      pz      :     0.905025  p :     2.672591
      px      :     0.898186
      py      :     0.869380
      dz2     :     0.102820  d :     0.443139
      dxz     :     0.052667
      dyz     :     0.069529
      dx2y2   :     0.119536
      dxy     :     0.098587
      f0      :     0.006181  f :     0.031952
      f+1     :     0.002286
      f-1     :     0.002609
      f+2     :     0.004457
      f-2     :     0.005951
      f+3     :     0.007108
      f-3     :     0.003360
 13 H s       :     0.675146  s :     0.675146
      pz      :     0.136935  p :     0.298439
      px      :     0.082543
      py      :     0.078961
      dz2     :     0.010724  d :     0.029695
      dxz     :     0.009629
      dyz     :     0.009246
      dx2y2   :     0.000054
      dxy     :     0.000043
 14 H s       :     0.691926  s :     0.691926
      pz      :     0.081081  p :     0.272422
      px      :     0.085193
      py      :     0.106149
      dz2     :     0.004639  d :     0.029910
      dxz     :     0.002664
      dyz     :     0.006940
      dx2y2   :     0.008312
      dxy     :     0.007354
 15 H s       :     0.684052  s :     0.684052
      pz      :     0.081780  p :     0.283299
      px      :     0.124501
      py      :     0.077018
      dz2     :     0.003898  d :     0.029607
      dxz     :     0.009090
      dyz     :     0.000523
      dx2y2   :     0.007531
      dxy     :     0.008565
 16 C s       :     2.625628  s :     2.625628
      pz      :     0.881919  p :     2.678112
      px      :     0.880903
      py      :     0.915290
      dz2     :     0.067623  d :     0.413897
      dxz     :     0.108167
      dyz     :     0.080543
      dx2y2   :     0.040042
      dxy     :     0.117522
      f0      :     0.004026  f :     0.031889
      f+1     :     0.005190
      f-1     :     0.004205
      f+2     :     0.004668
      f-2     :     0.005728
      f+3     :     0.004937
      f-3     :     0.003136
 17 H s       :     0.695965  s :     0.695965
      pz      :     0.075474  p :     0.273725
      px      :     0.087651
      py      :     0.110600
      dz2     :     0.003320  d :     0.029759
      dxz     :     0.003758
      dyz     :     0.006526
      dx2y2   :     0.008096
      dxy     :     0.008059
 18 H s       :     0.688349  s :     0.688349
      pz      :     0.106101  p :     0.274876
      px      :     0.085446
      py      :     0.083329
      dz2     :     0.008598  d :     0.029416
      dxz     :     0.007280
      dyz     :     0.006968
      dx2y2   :     0.003082
      dxy     :     0.003487
 19 H s       :     0.692762  s :     0.692762
      pz      :     0.081474  p :     0.275750
      px      :     0.089754
      py      :     0.104523
      dz2     :     0.004231  d :     0.029484
      dxz     :     0.004593
      dyz     :     0.005491
      dx2y2   :     0.007824
      dxy     :     0.007346
 20 C s       :     2.612035  s :     2.612035
      pz      :     0.827147  p :     2.623409
      px      :     0.898085
      py      :     0.898177
      dz2     :     0.102638  d :     0.482319
      dxz     :     0.135074
      dyz     :     0.084216
      dx2y2   :     0.060164
      dxy     :     0.100228
      f0      :     0.005609  f :     0.031496
      f+1     :     0.004805
      f-1     :     0.006288
      f+2     :     0.004774
      f-2     :     0.003815
      f+3     :     0.004182
      f-3     :     0.002024
 21 H s       :     0.687210  s :     0.687210
      pz      :     0.071329  p :     0.268311
      px      :     0.099368
      py      :     0.097613
      dz2     :     0.003841  d :     0.029389
      dxz     :     0.005722
      dyz     :     0.004432
      dx2y2   :     0.008444
      dxy     :     0.006950
 22 H s       :     0.675979  s :     0.675979
      pz      :     0.089056  p :     0.279019
      px      :     0.112434
      py      :     0.077529
      dz2     :     0.007016  d :     0.029846
      dxz     :     0.008452
      dyz     :     0.003855
      dx2y2   :     0.004583
      dxy     :     0.005940
 23 H s       :     0.674842  s :     0.674842
      pz      :     0.088233  p :     0.295495
      px      :     0.084073
      py      :     0.123188
      dz2     :     0.003165  d :     0.030000
      dxz     :     0.001753
      dyz     :     0.007297
      dx2y2   :     0.008761
      dxy     :     0.009024
 24 Aus       :     2.235181  s :     2.235181
      pz      :     2.269742  p :     6.817395
      px      :     2.314972
      py      :     2.232681
      dz2     :     1.927347  d :     9.512243
      dxz     :     1.910939
      dyz     :     1.952063
      dx2y2   :     1.911264
      dxy     :     1.810631
      f0      :     0.012343  f :     0.126592
      f+1     :     0.021862
      f-1     :     0.018867
      f+2     :     0.013318
      f-2     :     0.025680
      f+3     :     0.014412
      f-3     :     0.020111
      g0      :     0.000141  g :     0.001532
      g+1     :     0.000153
      g-1     :     0.000155
      g+2     :     0.000156
      g-2     :     0.000256
      g+3     :     0.000137
      g-3     :     0.000198
      g+4     :     0.000150
      g-4     :     0.000186
 25 Cls       :     5.681454  s :     5.681454
      pz      :     3.597116  p :    11.094934
      px      :     3.757905
      py      :     3.739914
      dz2     :     0.038403  d :     0.194161
      dxz     :     0.050157
      dyz     :     0.043715
      dx2y2   :     0.035427
      dxy     :     0.026459
      f0      :     0.000931  f :     0.005961
      f+1     :     0.000924
      f-1     :     0.001179
      f+2     :     0.001014
      f-2     :     0.001197
      f+3     :     0.000357
      f-3     :     0.000360
 26 Cls       :     5.700847  s :     5.700847
      pz      :     3.868680  p :    11.153106
      px      :     3.523132
      py      :     3.761294
      dz2     :     0.023137  d :     0.205340
      dxz     :     0.047159
      dyz     :     0.032796
      dx2y2   :     0.054522
      dxy     :     0.047725
      f0      :     0.000689  f :     0.006894
      f+1     :     0.000976
      f-1     :     0.000355
      f+2     :     0.000533
      f-2     :     0.001014
      f+3     :     0.001566
      f-3     :     0.001761
 27 Cls       :     5.687271  s :     5.687271
      pz      :     3.614973  p :    11.102473
      px      :     3.771252
      py      :     3.716248
      dz2     :     0.036893  d :     0.196382
      dxz     :     0.043389
      dyz     :     0.056131
      dx2y2   :     0.030096
      dxy     :     0.029872
      f0      :     0.000964  f :     0.006272
      f+1     :     0.000935
      f-1     :     0.001234
      f+2     :     0.001094
      f-2     :     0.001260
      f+3     :     0.000381
      f-3     :     0.000405


                      *****************************
                      * MAYER POPULATION ANALYSIS *
                      *****************************

  NA   - Mulliken gross atomic population
  ZA   - Total nuclear charge
  QA   - Mulliken gross atomic charge
  VA   - Mayer's total valence
  BVA  - Mayer's bonded valence
  FA   - Mayer's free valence

  ATOM       NA         ZA         QA         VA         BVA        FA
  0 C      3.5307     6.0000     2.4693    -2.5770    -2.5770    -0.0000
  1 C      8.1019     6.0000    -2.1019     1.1167     1.1167     0.0000
  2 C      6.4557     6.0000    -0.4557     3.8925     3.8925    -0.0000
  3 H      0.9009     1.0000     0.0991     0.9422     0.9422    -0.0000
  4 H      0.9261     1.0000     0.0739     1.0141     1.0141    -0.0000
  5 H      0.9458     1.0000     0.0542     1.0085     1.0085     0.0000
  6 C      3.6719     6.0000     2.3281     2.1362     2.1362     0.0000
  7 O      8.4765     8.0000    -0.4765     1.5482     1.5482     0.0000
  8 C      5.2734     6.0000     0.7266     3.4691     3.4691    -0.0000
  9 O      8.5904     8.0000    -0.5904     1.6995     1.6995    -0.0000
 10 C      5.8807     6.0000     0.1193     2.5677     2.5677    -0.0000
 11 O      8.6410     8.0000    -0.6410     1.6550     1.6550    -0.0000
 12 C      6.1272     6.0000    -0.1272     4.2953     4.2953    -0.0000
 13 H      0.9342     1.0000     0.0658     1.0077     1.0077    -0.0000
 14 H      0.9772     1.0000     0.0228     1.0155     1.0155     0.0000
 15 H      0.8863     1.0000     0.1137     0.9611     0.9611     0.0000
 16 C      6.1854     6.0000    -0.1854     3.9393     3.9393     0.0000
 17 H      0.9762     1.0000     0.0238     1.0553     1.0553     0.0000
 18 H      0.9531     1.0000     0.0469     1.0144     1.0144    -0.0000
 19 H      0.9175     1.0000     0.0825     0.9945     0.9945    -0.0000
 20 C      6.8458     6.0000    -0.8458     4.0428     4.0428    -0.0000
 21 H      0.9052     1.0000     0.0948     0.9849     0.9849    -0.0000
 22 H      0.8455     1.0000     0.1545     0.9675     0.9675     0.0000
 23 H      0.8554     1.0000     0.1446     1.0300     1.0300     0.0000
 24 Au    18.9096    19.0000     0.0904     2.9196     2.9196    -0.0000
 25 Cl    17.4718    17.0000    -0.4718     0.8428     0.8428     0.0000
 26 Cl    17.3405    17.0000    -0.3405     0.9574     0.9574    -0.0000
 27 Cl    17.4740    17.0000    -0.4740     0.8567     0.8567    -0.0000

  Mayer bond orders larger than 0.100000
B(  0-C ,  1-C ) :  -2.1426 B(  0-C ,  2-C ) :   0.9301 B(  0-C ,  8-C ) :   0.1058 
B(  0-C ,  9-O ) :  -0.2558 B(  0-C , 10-C ) :  -0.2783 B(  0-C , 12-C ) :  -0.1390 
B(  0-C , 24-Au) :  -0.4237 B(  0-C , 25-Cl) :  -0.7321 B(  0-C , 27-Cl) :   0.3250 
B(  1-C ,  6-C ) :   1.2651 B(  1-C ,  7-O ) :   0.2255 B(  1-C ,  9-O ) :   0.1295 
B(  1-C , 10-C ) :   0.3310 B(  1-C , 11-O ) :   0.1455 B(  1-C , 12-C ) :   0.1327 
B(  1-C , 20-C ) :   0.4422 B(  1-C , 24-Au) :   0.9098 B(  1-C , 25-Cl) :   0.2905 
B(  1-C , 26-Cl) :   0.1077 B(  1-C , 27-Cl) :  -0.6829 B(  2-C ,  3-H ) :   0.9988 
B(  2-C ,  4-H ) :   0.8771 B(  2-C ,  5-H ) :   0.9755 B(  6-C ,  7-O ) :  -0.1487 
B(  6-C ,  8-C ) :  -0.1959 B(  6-C ,  9-O ) :   0.2377 B(  6-C , 10-C ) :   0.2994 
B(  6-C , 20-C ) :   0.5144 B(  6-C , 25-Cl) :   0.2826 B(  7-O ,  8-C ) :   1.0289 
B(  7-O , 20-C ) :   0.1216 B(  8-C ,  9-O ) :   1.4428 B(  8-C , 16-C ) :   1.0610 
B( 10-C , 11-O ) :   1.1787 B( 10-C , 12-C ) :   1.2114 B( 10-C , 24-Au) :  -0.2750 
B( 11-O , 12-C ) :   0.1364 B( 11-O , 20-C ) :   0.1340 B( 12-C , 13-H ) :   0.8831 
B( 12-C , 14-H ) :   1.0628 B( 12-C , 15-H ) :   0.8971 B( 16-C , 17-H ) :   1.0419 
B( 16-C , 18-H ) :   0.9232 B( 16-C , 19-H ) :   0.9194 B( 20-C , 21-H ) :   1.0294 
B( 20-C , 22-H ) :   0.9457 B( 20-C , 23-H ) :   0.9062 B( 24-Au, 25-Cl) :   0.9444 
B( 24-Au, 26-Cl) :   0.7114 B( 24-Au, 27-Cl) :   0.8820 B( 25-Cl, 27-Cl) :   0.1677 


-------
TIMINGS
-------

Total SCF time: 0 days 0 hours 0 min 27 sec 

Total time                  ....      27.053 sec
Sum of individual times     ....      26.083 sec  ( 96.4%)

Fock matrix formation       ....      18.476 sec  ( 68.3%)
  Split-RI-J                ....       6.314 sec  ( 34.2% of F)
  XC integration            ....      11.587 sec  ( 62.7% of F)
    Basis function eval.    ....       1.061 sec  (  9.2% of XC)
    Density eval.           ....       3.846 sec  ( 33.2% of XC)
    XC-Functional eval.     ....       0.130 sec  (  1.1% of XC)
    XC-Potential eval.      ....       5.453 sec  ( 47.1% of XC)
Diagonalization             ....       3.045 sec  ( 11.3%)
Density matrix formation    ....       0.121 sec  (  0.4%)
Population analysis         ....       0.172 sec  (  0.6%)
Initial guess               ....       1.925 sec  (  7.1%)
Orbital Transformation      ....       0.000 sec  (  0.0%)
Orbital Orthonormalization  ....       0.000 sec  (  0.0%)
DIIS solution               ....       1.580 sec  (  5.8%)
Grid generation             ....       0.764 sec  (  2.8%)


-------------------------------------------------------------------------------
                          DFT DISPERSION CORRECTION                            
                                                                               
                              DFTD3 V3.1  Rev 1                                
                          USING Becke-Johnson damping                          
-------------------------------------------------------------------------------
The TPSS functional is recognized
Active option DFTDOPT                   ...         4   

molecular C6(AA) [au] = 14137.833234 


            DFT-D V3
 parameters
 s6 scaling factor         :     1.0000 
 a1 scaling factor         :     0.4535 
 s8 scaling factor         :     1.9435 
 a2 scaling factor         :     4.4752 
 ad hoc parameters k1-k3   :    16.0000     1.3333    -4.0000 

 Edisp/kcal,au: -33.758236850864  -0.053797169039 
 E6   /kcal   : -15.688788684 
 E8   /kcal   : -18.069448166 
 % E8         :  53.526042388 

-------------------------   ----------------
Dispersion correction           -0.053797169
-------------------------   ----------------


-------------------------   --------------------
FINAL SINGLE POINT ENERGY     -2092.661917585823
-------------------------   --------------------


                            ***************************************
                            *     ORCA property calculations      *
                            ***************************************

                                    ---------------------
                                    Active property flags
                                    ---------------------
   (+) Dipole Moment


------------------------------------------------------------------------------
                       ORCA ELECTRIC PROPERTIES CALCULATION
------------------------------------------------------------------------------

Dipole Moment Calculation                       ... on
Quadrupole Moment Calculation                   ... off
Polarizability Calculation                      ... off
GBWName                                         ... TMB28_C1.gbw
Electron density file                           ... TMB28_C1.scfp
The origin for moment calculation is the CENTER OF MASS  = ( 0.332761, -0.001158 -0.039568)

-------------
DIPOLE MOMENT
-------------
                                X             Y             Z
Electronic contribution:    184.88841       8.33550     -26.25655
Nuclear contribution   :   -188.12551      -7.68230      26.09317
                        -----------------------------------------
Total Dipole Moment    :     -3.23710       0.65320      -0.16338
                        -----------------------------------------
Magnitude (a.u.)       :      3.30638
Magnitude (Debye)      :      8.40416



--------------------
Rotational spectrum 
--------------------
 
Rotational constants in cm-1:     0.016324     0.007365     0.006921 
Rotational constants in MHz :   489.388468   220.811279   207.480820 

 Dipole components along the rotational axes: 
x,y,z [a.u.] :    -3.243323     0.591487    -0.251329 
x,y,z [Debye]:    -8.243871     1.503440    -0.638829 

 

Timings for individual modules:

Sum of individual times         ...       31.190 sec (=   0.520 min)
GTO integral calculation        ...        3.784 sec (=   0.063 min)  12.1 %
SCF iterations                  ...       27.406 sec (=   0.457 min)  87.9 %
                             ****ORCA TERMINATED NORMALLY****
TOTAL RUN TIME: 0 days 0 hours 0 minutes 31 seconds 810 msec
