
                                 *****************
                                 * O   R   C   A *
                                 *****************

           --- An Ab Initio, DFT and Semiempirical electronic structure package ---

                  #######################################################
                  #                        -***-                        #
                  #          Department of theory and spectroscopy      #
                  #               Directorship: Frank Neese             #
                  #        Max Planck Institute fuer Kohlenforschung    #
                  #                Kaiser Wilhelm Platz 1               #
                  #                 D-45470 Muelheim/Ruhr               #
                  #                      Germany                        #
                  #                                                     #
                  #                  All rights reserved                #
                  #                        -***-                        #
                  #######################################################


                         Program Version 4.2.0 -  RELEASE  -


 With contributions from (in alphabetic order):
   Daniel Aravena         : Magnetic Suceptibility
   Michael Atanasov       : Ab Initio Ligand Field Theory (pilot matlab implementation)
   Alexander A. Auer      : GIAO ZORA, VPT2
   Ute Becker             : Parallelization
   Giovanni Bistoni       : ED, misc. LED, open-shell LED, HFLED
   Martin Brehm           : Molecular dynamics
   Dmytro Bykov           : SCF Hessian
   Vijay G. Chilkuri      : MRCI spin determinant printing, contributions to CSF-ICE
   Dipayan Datta          : RHF DLPNO-CCSD density
   Achintya Kumar Dutta   : EOM-CC, STEOM-CC
   Dmitry Ganyushin       : Spin-Orbit,Spin-Spin,Magnetic field MRCI
   Miquel Garcia          : C-PCM Hessian, Gaussian charge scheme
   Yang Guo               : DLPNO-NEVPT2, CIM, IAO-localization
   Andreas Hansen         : Spin unrestricted coupled pair/coupled cluster methods
   Benjamin Helmich-Paris : CASSCF linear response (MC-RPA)
   Lee Huntington         : MR-EOM, pCC
   Robert Izsak           : Overlap fitted RIJCOSX, COSX-SCS-MP3, EOM
   Christian Kollmar      : KDIIS, OOCD, Brueckner-CCSD(T), CCSD density
   Simone Kossmann        : Meta GGA functionals, TD-DFT gradient, OOMP2, MP2 Hessian
   Martin Krupicka        : AUTO-CI
   Lucas Lang             : DCDCAS
   Dagmar Lenk            : GEPOL surface, SMD
   Dimitrios Liakos       : Extrapolation schemes; Compound Job, initial MDCI parallelization
   Dimitrios Manganas     : Further ROCIS development; embedding schemes
   Dimitrios Pantazis     : SARC Basis sets
   Taras Petrenko         : DFT Hessian,TD-DFT gradient, ASA, ECA, R-Raman, ABS, FL, XAS/XES, NRVS
   Peter Pinski           : DLPNO-MP2, DLPNO-MP2 Gradient
   Christoph Reimann      : Effective Core Potentials
   Marius Retegan         : Local ZFS, SOC
   Christoph Riplinger    : Optimizer, TS searches, QM/MM, DLPNO-CCSD(T), (RO)-DLPNO pert. Triples
   Tobias Risthaus        : Range-separated hybrids, TD-DFT gradient, RPA, STAB
   Michael Roemelt        : Original ROCIS implementation
   Masaaki Saitow         : Open-shell DLPNO-CCSD energy and density
   Barbara Sandhoefer     : DKH picture change effects
   Avijit Sen             : IP-ROCIS
   Kantharuban Sivalingam : CASSCF convergence, NEVPT2, FIC-MRCI
   Bernardo de Souza      : ESD, SOC TD-DFT
   Georgi Stoychev        : AutoAux, RI-MP2 NMR
   Willem Van den Heuvel  : Paramagnetic NMR
   Boris Wezisla          : Elementary symmetry handling
   Frank Wennmohs         : Technical directorship


 We gratefully acknowledge several colleagues who have allowed us to
 interface, adapt or use parts of their codes:
   Stefan Grimme, W. Hujo, H. Kruse,             : VdW corrections, initial TS optimization,
                  C. Bannwarth                     DFT functionals, gCP, sTDA/sTD-DF
   Ed Valeev, F. Pavosevic, A. Kumar             : LibInt (2-el integral package), F12 methods
   Garnet Chan, S. Sharma, J. Yang, R. Olivares  : DMRG
   Ulf Ekstrom                                   : XCFun DFT Library
   Mihaly Kallay                                 : mrcc  (arbitrary order and MRCC methods)
   Andreas Klamt, Michael Diedenhofen            : otool_cosmo (COSMO solvation model)
   Jiri Pittner, Ondrej Demel                    : Mk-CCSD
   Frank Weinhold                                : gennbo (NPA and NBO analysis)
   Christopher J. Cramer and Donald G. Truhlar   : smd solvation model
   Lars Goerigk                                  : TD-DFT with DH, B97 family of functionals
   V. Asgeirsson, H. Jonsson                     : NEB implementation
   FAccTs GmbH                                   : IRC, NEB, NEB-TS, Multilevel, MM, QM/MM, CI optimization
   S Lehtola, MJT Oliveira, MAL Marques          : LibXC Library


 Your calculation uses the libint2 library for the computation of 2-el integrals
 For citations please refer to: http://libint.valeyev.net

 Your ORCA version has been built with support for libXC version: 4.2.3
 For citations please refer to: https://tddft.org/programs/libxc/

 This ORCA versions uses:
   CBLAS   interface :  Fast vector & matrix operations
   LAPACKE interface :  Fast linear algebra routines
   SCALAPACK package :  Parallel linear algebra routines


----- Orbital basis set information -----
Your calculation utilizes the basis: def2-SVP
   F. Weigend and R. Ahlrichs, Phys. Chem. Chem. Phys. 7, 3297 (2005).

----- AuxJ basis set information -----
Your calculation utilizes the auxiliary basis: def2/J
   F. Weigend, Phys. Chem. Chem. Phys. 8, 1057 (2006).

================================================================================
                                        WARNINGS
                       Please study these warnings very carefully!
================================================================================


INFO   : the flag for use of LIBINT has been found!

================================================================================
                                       INPUT FILE
================================================================================
NAME = TMB20_T2_atom75.inp
|  1> # input to generate an atomic fitting density for Re
|  2> # this file is use internally by ORCA
|  3> #
|  4> # atomic ground state (S=6): 1s2 2s2 2p6 3s2 3p6 4s2 3d10 4p6 5s2 4d10 5p6 6s2 4f14 5d5 
|  5> #
|  6> ! RHF AllowRHF def2-SVP def2/J  NoMulliken NoLoewdin NoMayer NoPrintMOs 
|  7> 
|  8> %output print[p_atomdensfit] 2 end
|  9> 
| 10> %scf
| 11>   guess hcore
| 12>   maxiter 1000
| 13>   maxdisk 500000
| 14>   SCFMode Conventional
| 15>   lshift 0.500000
| 16>   hftyp rohf
| 17>   rohf_case sahf
| 18>   rohf_numop   2
| 19>   rohf_norb[1] 5
| 20>   rohf_nel[1]  5
| 21> end
| 22> 
| 23> %basis
| 24>   NewECP 75
| 25>     N_core 60
| 26>     lmax f
| 27>     s 3
| 28>       1      14.0993051000   1038.9515723000  2
| 29>       2       7.0496525000     29.5617383000  2
| 30>       3       2.5086506000    -16.4498523000  2
| 31>     p 3
| 32>       1      10.1077169000    339.5435096000  2
| 33>       2       5.0538583000     24.9136965000  2
| 34>       3       2.5086506000    -16.4498523000  2
| 35>     d 3
| 36>       1       6.8486179000    111.6996527000  2
| 37>       2       3.4243090000     12.6243293000  2
| 38>       3       2.5086506000    -16.4498523000  2
| 39>     f 1
| 40>       1       2.5086506000     16.4498523000  2
| 41>   end
| 42>   NewGTO 75
| 43>     s 3 
| 44>      1      30.0000000000      0.9973027955
| 45>      2      27.0000000000     -1.4589639639
| 46>      3      13.0780456840      1.4348422075
| 47>     s 1 
| 48>      1       5.0352712861      1.0000000000
| 49>     s 1 
| 50>      1       1.0482706438      1.0000000000
| 51>     s 1 
| 52>      1       0.4770877341      1.0000000000
| 53>     s 1 
| 54>      1       0.1222585725      1.0000000000
| 55>     s 1 
| 56>      1       0.0440074006      1.0000000000
| 57>     p 4 
| 58>      1      18.0000000000     -0.0654422411
| 59>      2      12.3186062500      0.2426593672
| 60>      3       5.3719234505     -0.7127910952
| 61>      4       1.3506646748      1.2524914706
| 62>     p 1 
| 63>      1       0.6621281681      1.0000000000
| 64>     p 1 
| 65>      1       0.3107138519      1.0000000000
| 66>     p 1 
| 67>      1       0.0700000000      1.0000000000
| 68>     d 4 
| 69>      1       7.7352877672      0.0616881431
| 70>      2       6.0949443610     -0.1303015252
| 71>      3       1.3871105497      0.4061349964
| 72>      4       0.6232402785      0.6762765945
| 73>     d 1 
| 74>      1       0.2651732855      1.0000000000
| 75>     d 1 
| 76>      1       0.1032109685      1.0000000000
| 77>     p 1 
| 78>      1       0.0296511907      1.0000000000
| 79>   end
| 80>   NewAuxGTO 75
| 81>     S 1
| 82>      1 1310.72 1.0
| 83>     S 1
| 84>      1  655.36 1.0
| 85>     S 1
| 86>      1  327.68 1.0
| 87>     S 1
| 88>      1  163.84 1.0
| 89>     S 1
| 90>      1   81.82 1.0
| 91>     S 1
| 92>      1   40.96 1.0
| 93>     S 1
| 94>      1   20.48 1.0
| 95>     S 1
| 96>      1   10.24 1.0
| 97>     S 1
| 98>      1    5.12 1.0
| 99>     S 1
|100>      1    2.56 1.0
|101>     S 1
|102>      1    1.28 1.0
|103>     S 1
|104>      1    0.64 1.0
|105>     S 1
|106>      1    0.32 1.0
|107>     S 1
|108>      1    0.16 1.0
|109>     S 1
|110>      1    0.08 1.0
|111>     S 1
|112>      1    0.04 1.0
|113>     S 1
|114>      1    0.02 1.0
|115>     S 1
|116>      1    0.01 1.0
|117>   end
|118> end
|119> 
|120> * xyz 0 6
|121> 75  0.0 0.0 0.0
|122> *
|123> 
|124> 
|125>                          ****END OF INPUT****
================================================================================

                       ****************************
                       * Single Point Calculation *
                       ****************************

---------------------------------
CARTESIAN COORDINATES (ANGSTROEM)
---------------------------------
  Re     0.000000    0.000000    0.000000

----------------------------
CARTESIAN COORDINATES (A.U.)
----------------------------
  NO LB      ZA    FRAG     MASS         X           Y           Z
   0 Re   15.0000*   0   186.207    0.000000    0.000000    0.000000
* core charge reduced due to ECP

--------------------------------
INTERNAL COORDINATES (ANGSTROEM)
--------------------------------
 Re     0   0   0     0.000000000000     0.00000000     0.00000000

---------------------------
INTERNAL COORDINATES (A.U.)
---------------------------
 Re     0   0   0     0.000000000000     0.00000000     0.00000000

---------------------
BASIS SET INFORMATION
---------------------
There are 1 groups of distinct atoms

 Group   1 Type Re  : 8s8p6d contracted to 6s5p3d pattern {311111/41111/411}

Atom   0Re   basis set group =>   1
---------------------------------
AUXILIARY/J BASIS SET INFORMATION
---------------------------------
There are 1 groups of distinct atoms

 Group   1 Type Re  : 18s contracted to 18s pattern {111111111111111111}

Atom   0Re   basis set group =>   1
-------------------------
ECP PARAMETER INFORMATION
-------------------------

 Group 1, Type Re ECP (replacing 60 core electrons, lmax=3)

Atom   0Re   ECP group =>   1

------------------------------------------------------------------------------
                           ORCA GTO INTEGRAL CALCULATION
------------------------------------------------------------------------------

                         BASIS SET STATISTICS AND STARTUP INFO

 # of primitive gaussian shells          ...   22
 # of primitive gaussian functions       ...   62
 # of contracted shells                  ...   14
 # of contracted basis functions         ...   36
 Highest angular momentum                ...    2
 Maximum contraction depth               ...    4
 Integral package used                   ... LIBINT
 Integral threshhold            Thresh   ...  1.000e-10
 Primitive cut-off              TCut     ...  1.000e-11
 Storage cut-off                TCutStore... -1.000e+00
 Buffer length                           ... 1048576 integrals/buffer
 Generate file with integrals 4 distinct ...false


------------------------------ INTEGRAL EVALUATION ----------------------------


 * One electron integrals 

   ECP integrals                         ... done
 Pre-screening matrix                    ... done
 Shell pair data                         ... done (   0.000 sec)
 Statistics run                          ... done
 Maximum amount of storage needed        ...     2 MB
 Maximum amount of storage dedicated     ... 500000 MB
 Beginning two electron integral evaluation:
 Starting repulsion integrals
  <ss|ss>  ...          231 b.         0 skpd (  0.0%)     0.000 s. (  0.000 ms/b)
  <ss|sp>  ...          630 b.         0 skpd (  0.0%)     0.000 s. (  0.000 ms/b)
  <ss|sd>  ...          378 b.         0 skpd (  0.0%)     0.000 s. (  0.000 ms/b)
  <ss|pp>  ...          315 b.         0 skpd (  0.0%)     0.000 s. (  0.001 ms/b)
  <ss|pd>  ...          315 b.         0 skpd (  0.0%)     0.000 s. (  0.001 ms/b)
  <ss|dd>  ...          126 b.         0 skpd (  0.0%)     0.000 s. (  0.002 ms/b)
  <sp|sp>  ...          465 b.         0 skpd (  0.0%)     0.000 s. (  0.000 ms/b)
  <sp|sd>  ...          540 b.         0 skpd (  0.0%)     0.000 s. (  0.001 ms/b)
  <sp|pp>  ...          450 b.         0 skpd (  0.0%)     0.001 s. (  0.001 ms/b)
  <sp|pd>  ...          450 b.         0 skpd (  0.0%)     0.001 s. (  0.002 ms/b)
  <sp|dd>  ...          180 b.         0 skpd (  0.0%)     0.001 s. (  0.005 ms/b)
  <sd|sd>  ...          171 b.         0 skpd (  0.0%)     0.000 s. (  0.002 ms/b)
  <sd|pp>  ...          270 b.         0 skpd (  0.0%)     0.001 s. (  0.003 ms/b)
  <sd|pd>  ...          270 b.         0 skpd (  0.0%)     0.001 s. (  0.005 ms/b)
  <sd|dd>  ...          108 b.         0 skpd (  0.0%)     0.001 s. (  0.013 ms/b)
  <pp|pp>  ...          120 b.         0 skpd (  0.0%)     0.000 s. (  0.004 ms/b)
  <pp|pd>  ...          225 b.         0 skpd (  0.0%)     0.001 s. (  0.006 ms/b)
  <pp|dd>  ...           90 b.         0 skpd (  0.0%)     0.001 s. (  0.015 ms/b)
  <pd|pd>  ...          120 b.         0 skpd (  0.0%)     0.002 s. (  0.016 ms/b)
  <pd|dd>  ...           90 b.         0 skpd (  0.0%)     0.003 s. (  0.037 ms/b)
  <dd|dd>  ...           21 b.         0 skpd (  0.0%)     0.003 s. (  0.120 ms/b)


                                      INTEGRAL STATISTICS

Integral type statistics:
 Number of integrals retained            ...     222111 
 One   Center Integrals retained         ...     222111 (100.0%)
 Two   Center Integrals retained         ...          0 (  0.0%)
 Three Center Integrals retained         ...          0 (  0.0%)
 Four  Center Integrals retained         ...          0 (  0.0%)

Storage statistics:
 Number of char integrals                ...          0 (  0.0%)
 Number of short int integrals           ...          0 (  0.0%)
 Number of double/float integrals        ...     222111 (100.0%)
 Amount of memory used                   ...          2 MB
 Amount of memory estimated              ...          2 MB ( 95.1%)

Prescreening statistics:
 Total number of shell quadruples        ...       5565 
 Number of skipped shell quadruples      ...          0 (  0.0%)
 # of negligible batches done            ...          0 (  0.0%)

Timings:
 Total evaluation time               ...     0.193 sec (   0.003 min)
 One electron matrix time            ...     0.014 sec (   0.000 min) =  7.5%
 Schwartz matrix evaluation time     ...     0.073 sec (   0.001 min) = 37.6%
 Statistics run                      ...     0.002 sec (   0.000 min) =  0.9%
 Repulsion integral time             ...     0.019 sec (   0.000 min) =  9.8%

-------------------------------------------------------------------------------
                                 ORCA SCF
-------------------------------------------------------------------------------

------------
SCF SETTINGS
------------
Hamiltonian:
 Ab initio Hamiltonian  Method          .... Hartree-Fock(GTOs)


General Settings:
 Integral files         IntName         .... TMB20_T2_atom75
 Hartree-Fock type      HFTyp           .... ROHF
 Total Charge           Charge          ....    0
 Multiplicity           Mult            ....    6
 Number of Electrons    NEL             ....   15
 Basis Dimension        Dim             ....   36
 Nuclear Repulsion      ENuc            ....      0.0000000000 Eh

Convergence Acceleration:
 DIIS                   CNVDIIS         .... on
   Start iteration      DIISMaxIt       ....    12
   Startup error        DIISStart       ....  0.200000
   # of expansion vecs  DIISMaxEq       ....     5
   Bias factor          DIISBfac        ....   1.050
   Max. coefficient     DIISMaxC        ....  10.000
 Newton-Raphson         CNVNR           .... off
 SOSCF                  CNVSOSCF        .... off
 Level Shifting         CNVShift        .... on
   Level shift para.    LevelShift      ....    0.5000
   Turn off err/grad.   ShiftErr        ....    0.0010
 Zerner damping         CNVZerner       .... off
 Static damping         CNVDamp         .... on
   Fraction old density DampFac         ....    0.7000
   Max. Damping (<1)    DampMax         ....    0.9800
   Min. Damping (>=0)   DampMin         ....    0.0000
   Turn off err/grad.   DampErr         ....    0.1000
 Fernandez-Rico         CNVRico         .... off

SCF Procedure:
 Maximum # iterations   MaxIter         ....  1000
 SCF integral mode      SCFMode         .... Conventional
 Integral Threshold     Thresh          ....  1.000e-10 Eh
 Primitive CutOff       TCut            ....  1.000e-11 Eh
 Integral Buffer length BufferLength    .... 1048576
 Integral index format  IndFormat       ....     0
 Integral value format  ValFormat       ....     0
 Integral Storage       Thresh          ....  1.000e-10 Eh

Convergence Tolerance:
 Convergence Check Mode ConvCheckMode   .... Total+1el-Energy
 Convergence forced     ConvForced      .... 0
 Energy Change          TolE            ....  1.000e-06 Eh
 1-El. energy change                    ....  1.000e-03 Eh
 DIIS Error             TolErr          ....  1.000e-06


Diagonalization of the overlap matrix:
Smallest eigenvalue                        ... 1.714e-02
Time for diagonalization                   ...    0.000 sec
Threshold for overlap eigenvalues          ... 1.000e-08
Number of eigenvalues below threshold      ... 0
Time for construction of square roots      ...    0.000 sec
Total time needed                          ...    0.001 sec

--------------------
INITIAL GUESS: HCORE
--------------------
AVERAGE-CONFIGURATION (SAHF) CASE FOUND

-------------------
FINAL ROHF SETTINGS
-------------------
Number of operators             ... 2
  operator   0:   5 orbitals  10 electrons n(mue)= 2.000
  operator   1:   5 orbitals   5 electrons n(mue)= 1.000
Vector coupling coefficients a and b (Zerner convention):
   1.000    1.000           1.000    1.000 
   1.000    1.000           1.000    2.000 

                      -----------------
                      INTIAL GUESS DONE 
                      -----------------

 InCore treatment chosen:
   Memory dedicated               ...    1024 MB
   Memory needed                  ...      2 MB
   Number of tiny    integrals    ...       0
   Number of small   integrals    ...       0
   Number of regular integrals    ...  222111

--------------
SCF ITERATIONS
--------------
ITER       Energy         Delta-E        Max-DP      RMS-DP      [F,P]     Damp
  0    -72.1314339948   0.000000000000 2.42427237  0.08990071  0.6774174 0.7000
  1    -75.3707616388  -3.239327643971 1.69382762  0.06166818  0.2421591 0.7000
                            ****Activating DIIS****
  2    -75.2556926257   0.115069013017 3.91911116  0.13890615  0.0911432 0.0000
  3    -75.0265404664   0.229152159382 0.02481273  0.00098821  0.2489592 0.7000
  4    -74.9793559730   0.047184493386 0.01888156  0.00076580  0.2745360 0.7000
  5    -74.9660744304   0.013281542563 0.05281030  0.00214971  0.2782999 0.7000
  6    -74.8713089676   0.094765462828 0.02356020  0.00092724  0.3214517 0.7000
  7    -74.8944411203  -0.023132152748 0.90103552  0.03587918  0.2967984 0.7000
  8    -76.8605155886  -1.966074468274 2.10241621  0.08539183  0.0817356 0.0000
  9    -77.0424524007  -0.181936812073 0.00584771  0.00029679  0.2534781 0.7000
 10    -77.0129308852   0.029521515452 0.00437789  0.00021509  0.2700766 0.7000
 11    -77.0076505512   0.005280334057 0.00338228  0.00017089  0.2706970 0.7000
 12    -77.0018690557   0.005781495460 0.00819156  0.00039426  0.2722696 0.7000
 13    -76.9709605432   0.030908512481 0.06110006  0.00350475  0.2881476 0.7000
 14    -77.2833943046  -0.312433761360 0.17862463  0.01195263  0.0708313 0.0000
 15    -77.4350070480  -0.151612743373 0.11012499  0.00438788  0.0646148 0.0000
 16    -77.4477060546  -0.012699006622 0.09355518  0.00309298  0.0283252 0.0000
 17    -77.4565229066  -0.008816851990 0.04854134  0.00163516  0.0160597 0.0000
 18    -77.4589233047  -0.002400398173 0.03588597  0.00113895  0.0132161 0.0000
 19    -77.4597111210  -0.000787816279 0.04875047  0.00146902  0.0128934 0.0000
 20    -77.4603583401  -0.000647219052 0.03068953  0.00088458  0.0124736 0.0000
 21    -77.4606035453  -0.000245205235 0.02527672  0.00071216  0.0125423 0.0000
 22    -77.4607491322  -0.000145586944 0.02139375  0.00059262  0.0126120 0.0000
 23    -77.4608354159  -0.000086283692 0.01003247  0.00027532  0.0126660 0.0000
 24    -77.4608654164  -0.000030000427 0.00542905  0.00014864  0.0126969 0.0000
 25    -77.4608513931   0.000014023281 0.00634789  0.00017357  0.0127174 0.0000
 26    -77.4608686527  -0.000017259640 0.00321049  0.00008810  0.0127252 0.0000
 27    -77.4608766107  -0.000007957981 0.00483769  0.00013186  0.0127398 0.0000
 28    -77.4608870978  -0.000010487063 0.00439780  0.00011955  0.0127519 0.0000
 29    -77.4608953194  -0.000008221665 0.00364823  0.00009900  0.0127613 0.0000
 30    -77.4609012263  -0.000005906907 0.00322227  0.00008724  0.0127685 0.0000
 31    -77.4609057785  -0.000004552133 0.00313272  0.00008467  0.0127732 0.0000
 32    -77.4609096153  -0.000003836819 0.00290592  0.00007843  0.0127771 0.0000
 33    -77.4609126655  -0.000003050160 0.00261008  0.00007036  0.0127801 0.0000
 34    -77.4609149941  -0.000002328675 0.00228744  0.00006161  0.0127824 0.0000
 35    -77.4609167199  -0.000001725805 0.00195799  0.00005271  0.0127842 0.0000
 36    -77.4609179675  -0.000001247556 0.00165165  0.00004446  0.0127855 0.0000
                 **** Energy Check signals convergence ****

               *****************************************************
               *                     SUCCESS                       *
               *           SCF CONVERGED AFTER  37 CYCLES          *
               *****************************************************


----------------
TOTAL SCF ENERGY
----------------

Total Energy       :          -77.46091886 Eh           -2107.81876 eV

Components:
Nuclear Repulsion  :            0.00000000 Eh               0.00000 eV
Electronic Energy  :          -77.46091886 Eh           -2107.81876 eV
One Electron Energy:         -133.61567880 Eh           -3635.86746 eV
Two Electron Energy:           56.15475994 Eh            1528.04870 eV

Virial components:
Potential Energy   :         -104.49469686 Eh           -2843.44526 eV
Kinetic Energy     :           27.03377800 Eh             735.62650 eV
Virial Ratio       :            3.86533828


---------------
SCF CONVERGENCE
---------------

  Last Energy change         ...   -8.9146e-07  Tolerance :   1.0000e-06
  Last MAX-Density change    ...    1.3711e-03  Tolerance :   1.0000e-05
  Last RMS-Density change    ...    3.6925e-05  Tolerance :   1.0000e-06
  Last DIIS Error            ...    1.2787e-02  Tolerance :   1.0000e-06

             **** THE GBW FILE WAS UPDATED (TMB20_T2_atom75.gbw) ****
             **** DENSITY FILE WAS UPDATED (TMB20_T2_atom75.scfp) ****
             **** ENERGY FILE WAS UPDATED (TMB20_T2_atom75.en.tmp) ****
             **** THE GBW FILE WAS UPDATED (TMB20_T2_atom75.gbw) ****
             **** DENSITY FILE WAS UPDATED (TMB20_T2_atom75.scfp) ****
----------------
ORBITAL ENERGIES
----------------

  NO   OCC          E(Eh)            E(eV) 
   0   2.0000      -3.582677       -97.4896 
   1   2.0000      -1.992827       -54.2276 
   2   2.0000      -1.983771       -53.9811 
   3   2.0000      -1.981377       -53.9160 
   4   2.0000      -0.258520        -7.0347 
   5   1.0000      -0.366760        -9.9800 
   6   1.0000      -0.359729        -9.7887 
   7   1.0000      -0.355683        -9.6786 
   8   1.0000      -0.339454        -9.2370 
   9   1.0000      -0.286620        -7.7993 
  10   0.0000       0.031028         0.8443 
  11   0.0000       0.036191         0.9848 
  12   0.0000       0.037471         1.0196 
  13   0.0000       0.150788         4.1031 
  14   0.0000       0.161277         4.3886 
  15   0.0000       0.163835         4.4582 
  16   0.0000       0.209826         5.7097 
  17   0.0000       0.345854         9.4112 
  18   0.0000       0.347446         9.4545 
  19   0.0000       0.349022         9.4974 
  20   0.0000       0.364069         9.9068 
  21   0.0000       0.355516         9.6741 
  22   0.0000       0.950745        25.8711 
  23   0.0000       0.977202        26.5910 
  24   0.0000       0.983884        26.7728 
  25   0.0000       1.452982        39.5377 
  26   0.0000       1.456081        39.6220 
  27   0.0000       1.459286        39.7092 
  28   0.0000       1.492622        40.6163 
  29   0.0000       1.471800        40.0497 
  30   0.0000       1.940450        52.8023 
  31   0.0000      36.169072       984.2105 
  32   0.0000      36.190491       984.7933 
  33   0.0000      36.196400       984.9541 
  34   0.0000      66.620100      1812.8251 
  35   0.0000     511.303938     13913.2875 
CleanUpVectors: The p-vectors have cracked symmetry
CleanUpVectors: The p-vectors have cracked symmetry
CleanUpVectors: The p-vectors have cracked symmetry
CleanUpVectors: The d-vectors have cracked symmetry at i=4
CleanUpVectors: The d-vectors have cracked symmetry at i=6
CleanUpVectors: The d-vectors have cracked symmetry at i=7
CleanUpVectors: The d-vectors have cracked symmetry at i=8
CleanUpVectors: The d-vectors have cracked symmetry at i=9
CleanUpVectors: The p-vectors have cracked symmetry
CleanUpVectors: The p-vectors have cracked symmetry
CleanUpVectors: The p-vectors have cracked symmetry
CleanUpVectors: The p-vectors have cracked symmetry
CleanUpVectors: The p-vectors have cracked symmetry
CleanUpVectors: The p-vectors have cracked symmetry
CleanUpVectors: The d-vectors have cracked symmetry at i=17
CleanUpVectors: The d-vectors have cracked symmetry at i=18
CleanUpVectors: The d-vectors have cracked symmetry at i=19
CleanUpVectors: The d-vectors have cracked symmetry at i=20
CleanUpVectors: The d-vectors have cracked symmetry at i=21
CleanUpVectors: The p-vectors have cracked symmetry
CleanUpVectors: The p-vectors have cracked symmetry
CleanUpVectors: The p-vectors have cracked symmetry
CleanUpVectors: The d-vectors have cracked symmetry at i=25
CleanUpVectors: The d-vectors have cracked symmetry at i=26
CleanUpVectors: The d-vectors have cracked symmetry at i=27
CleanUpVectors: The d-vectors have cracked symmetry at i=28
CleanUpVectors: The d-vectors have cracked symmetry at i=29
CleanUpVectors: The p-vectors have cracked symmetry
CleanUpVectors: The p-vectors have cracked symmetry
CleanUpVectors: The p-vectors have cracked symmetry
--------------------------
ATOM BASIS FOR ELEMENT Re
--------------------------
 NewGTO Re
 S 8
    1         30.000000000000        -0.316829806267
    2         27.000000000000         0.463493406535
    3         13.078045684000        -0.455830246017
    4          5.035271286100         0.860721833996
    5          1.048270643800        -0.940551112141
    6          0.477087734100        -0.379540512160
    7          0.122258572500        -0.010675664880
    8          0.044007400600         0.005190417805
 P 22
    1         18.000000000000         0.002352545461
    2         12.318606250000        -0.008723221933
    3          5.371923450500         0.025623716846
    4          1.350664674800        -0.045025095026
    5         18.000000000000         0.010091022169
    6         12.318606250000        -0.037417438839
    7          5.371923450500         0.109910519908
    8          1.350664674800        -0.193130904189
    9         18.000000000000         0.024703480734
   10         12.318606250000        -0.091600331863
   11          5.371923450500         0.269068124683
   12          1.350664674800        -0.472797055750
   13          0.662128168100        -0.042796803230
   14          0.662128168100        -0.183572856413
   15          0.662128168100        -0.449398331109
   16          0.310713851900        -0.014461223653
   17          0.310713851900        -0.062030056751
   18          0.310713851900        -0.151853626550
   19          0.070000000000        -0.000751807568
   20          0.070000000000        -0.003224807750
   21          0.070000000000        -0.007894539799
   22          0.029651190700         0.000202158698
 D 22
    1         30.000000000000        -0.000017276474
    2         27.000000000000         0.000028082136
    3         13.078045684000        -0.000057017822
    4          5.035271286100         0.000293103979
    5          1.048270643800        -0.002349127438
    6          0.477087734100        -0.001248666459
    7          0.122258572500         0.029915271106
    8          0.044007400600        -0.009133164644
    9          7.735287767200         0.010409179716
   10          6.094944361000        -0.021986915554
   11          1.387110549700         0.068530708721
   12          0.623240278500         0.114114062377
   13          7.735287767200        -0.031487709598
   14          6.094944361000         0.066510294839
   15          1.387110549700        -0.207305005168
   16          0.623240278500        -0.345194391423
   17          7.735287767200         0.012157692709
   18          6.094944361000        -0.025680233238
   19          1.387110549700         0.080042358811
   20          0.623240278500         0.133282712183
   21          7.735287767200        -0.005548220545
   22          6.094944361000         0.011719295846
 S 8
    1         30.000000000000        -1.927185257335
    2         27.000000000000         2.819298065640
    3         13.078045684000        -2.772685248023
    4          5.035271286100         1.309025276893
    5          1.048270643800        -0.594999415714
    6          0.477087734100         0.401641244731
    7          0.122258572500        -0.135525090806
    8          0.044007400600         0.049887578631
 D 22
    1         30.000000000000         0.000081670497
    2         27.000000000000        -0.000132751738
    3         13.078045684000         0.000269538438
    4          5.035271286100        -0.001362660051
    5          1.048270643800         0.007294519926
    6          0.477087734100         0.025738845036
    7          0.122258572500        -0.093469673343
    8          0.044007400600        -0.640679618443
    9          7.735287767200        -0.019889638089
   10          6.094944361000         0.042012128237
   11          1.387110549700        -0.130947013276
   12          0.623240278500        -0.218046711028
   13          7.735287767200         0.005674794359
   14          6.094944361000        -0.011986652912
   15          1.387110549700         0.037361030348
   16          0.623240278500         0.062211802958
   17          7.735287767200         0.004039630584
   18          6.094944361000        -0.008532758483
   19          1.387110549700         0.026595635241
   20          0.623240278500         0.044285781302
   21          7.735287767200        -0.022929405406
   22          6.094944361000         0.048432913460
 P 22
    1         18.000000000000         0.002435768003
    2         12.318606250000        -0.009031810530
    3          5.371923450500         0.026530169404
    4          1.350664674800        -0.046617881615
    5         18.000000000000        -0.001579187500
    6         12.318606250000         0.005855616081
    7          5.371923450500        -0.017200370411
    8          1.350664674800         0.030223886600
    9         18.000000000000         0.000413114298
   10         12.318606250000        -0.001531824896
   11          5.371923450500         0.004499604356
   12          1.350664674800        -0.007906546693
   13          0.662128168100        -0.089772704716
   14          0.662128168100         0.058202559900
   15          0.662128168100        -0.015225747224
   16          0.310713851900         0.061870139074
   17          0.310713851900        -0.040112420438
   18          0.310713851900         0.010493379933
   19          0.070000000000        -0.124906133493
   20          0.070000000000         0.080980702760
   21          0.070000000000        -0.021184492784
   22          0.029651190700         0.919510997067
 P 22
    1         18.000000000000         0.005200455052
    2         12.318606250000        -0.019283250556
    3          5.371923450500         0.056642895932
    4          1.350664674800        -0.099530906744
    5         18.000000000000        -0.003371623899
    6         12.318606250000         0.012501957573
    7          5.371923450500        -0.036723428952
    8          1.350664674800         0.064529119181
    9         18.000000000000         0.000882014353
   10         12.318606250000        -0.003270502984
   11          5.371923450500         0.009606822232
   12          1.350664674800        -0.016880770518
   13          0.662128168100        -0.123168282232
   14          0.662128168100         0.079853997352
   15          0.662128168100        -0.020889747472
   16          0.310713851900        -0.120135298563
   17          0.310713851900         0.077887615541
   18          0.310713851900        -0.020375343424
   19          0.070000000000         1.501124157594
   20          0.070000000000        -0.973227541478
   21          0.070000000000         0.254595615099
   22          0.029651190700        -1.108216936097
 P 22
    1         18.000000000000         0.093809444829
    2         12.318606250000        -0.347844758018
    3          5.371923450500         1.021764166321
    4          1.350664674800        -1.795408096285
    5         18.000000000000         0.128612879025
    6         12.318606250000        -0.476895645892
    7          5.371923450500         1.400840089768
    8          1.350664674800        -2.461506991213
    9         18.000000000000        -0.061470139107
   10         12.318606250000         0.227930841099
   11          5.371923450500        -0.669527312016
   12          1.350664674800         1.176469870739
   13          0.662128168100         2.212084731248
   14          0.662128168100         3.032771235905
   15          0.662128168100        -1.449503900100
   16          0.310713851900        -1.126340177523
   17          0.310713851900        -1.544213946230
   18          0.310713851900         0.738052415939
   19          0.070000000000         0.337453184918
   20          0.070000000000         0.462648784754
   21          0.070000000000        -0.221121596624
   22          0.029651190700        -0.156364493558
 D 22
    1         30.000000000000        -0.000002766629
    2         27.000000000000         0.000004497031
    3         13.078045684000        -0.000009130749
    4          5.035271286100         0.000049865279
    5          1.048270643800        -0.001178821417
    6          0.477087734100         0.005256850982
    7          0.122258572500        -0.036551274534
    8          0.044007400600         0.085758986184
    9          7.735287767200         0.004707266415
   10          6.094944361000        -0.009942980329
   11          1.387110549700         0.030991135936
   12          0.623240278500         0.051604959081
   13          7.735287767200        -0.013881340547
   14          6.094944361000         0.029321029200
   15          1.387110549700        -0.091390304683
   16          0.623240278500        -0.152178769545
   17          7.735287767200         0.005318764592
   18          6.094944361000        -0.011234624737
   19          1.387110549700         0.035017044277
   20          0.623240278500         0.058308709328
   21          7.735287767200        -0.002288667919
   22          6.094944361000         0.004834266450
 D 22
    1         30.000000000000        -0.000035228502
    2         27.000000000000         0.000057262353
    3         13.078045684000        -0.000116265185
    4          5.035271286100         0.000613523074
    5          1.048270643800        -0.006917495202
    6          0.477087734100         0.009152624407
    7          0.122258572500         0.014583466449
    8          0.044007400600        -0.013814188311
    9          7.735287767200        -0.038747580241
   10          6.094944361000         0.081845044275
   11          1.387110549700        -0.255101670613
   12          0.623240278500        -0.424783115424
   13          7.735287767200         0.010543477093
   14          6.094944361000        -0.022270586812
   15          1.387110549700         0.069414879685
   16          0.623240278500         0.115586341629
   17          7.735287767200         0.008125830143
   18          6.094944361000        -0.017163882846
   19          1.387110549700         0.053497865716
   20          0.623240278500         0.089082090340
   21          7.735287767200        -0.044984343575
   22          6.094944361000         0.095018722942
 P 22
    1         18.000000000000         0.014985712872
    2         12.318606250000        -0.055566917351
    3          5.371923450500         0.163223057624
    4          1.350664674800        -0.286809822480
    5         18.000000000000         0.064279803834
    6         12.318606250000        -0.238349058038
    7          5.371923450500         0.700129931430
    8          1.350664674800        -1.230243718436
    9         18.000000000000         0.157361154207
   10         12.318606250000        -0.583494046962
   11          5.371923450500         1.713963757408
   12          1.350664674800        -3.011716899282
   13          0.662128168100         0.353395686577
   14          0.662128168100         1.515857510650
   15          0.662128168100         3.710918099651
   16          0.310713851900        -0.179960761822
   17          0.310713851900        -0.771924737033
   18          0.310713851900        -1.889722126320
   19          0.070000000000         0.053930780301
   20          0.070000000000         0.231331002270
   21          0.070000000000         0.566313388498
   22          0.029651190700        -0.024991398936
 end
  // -----------------------------------------------
  // The basis set
  // -----------------------------------------------
  BAS[ATNO] = new BFNGauss[NSH];
  // Basis function   1 L = s
  InitBFNGauss(BAS[ATNO][  0]);
  BAS[ATNO][  0].l  = 0;
  BAS[ATNO][  0].ng = 8;
  BAS[ATNO][  0].a[  0] =        30.000000000000;     BAS[ATNO][  0].d[  0] =         0.316829806267;
  BAS[ATNO][  0].a[  1] =        27.000000000000;     BAS[ATNO][  0].d[  1] =        -0.463493406535;
  BAS[ATNO][  0].a[  2] =        13.078045684000;     BAS[ATNO][  0].d[  2] =         0.455830246017;
  BAS[ATNO][  0].a[  3] =         5.035271286100;     BAS[ATNO][  0].d[  3] =        -0.860721833996;
  BAS[ATNO][  0].a[  4] =         1.048270643800;     BAS[ATNO][  0].d[  4] =         0.940551112141;
  BAS[ATNO][  0].a[  5] =         0.477087734100;     BAS[ATNO][  0].d[  5] =         0.379540512160;
  BAS[ATNO][  0].a[  6] =         0.122258572500;     BAS[ATNO][  0].d[  6] =         0.010675664880;
  BAS[ATNO][  0].a[  7] =         0.044007400600;     BAS[ATNO][  0].d[  7] =        -0.005190417805;

  // Basis function   2 L = p
  InitBFNGauss(BAS[ATNO][  1]);
  BAS[ATNO][  1].l  = 1;
  BAS[ATNO][  1].ng = 22;
  BAS[ATNO][  1].a[  0] =        18.000000000000;     BAS[ATNO][  1].d[  0] =        -0.002352545461;
  BAS[ATNO][  1].a[  1] =        12.318606250000;     BAS[ATNO][  1].d[  1] =         0.008723221933;
  BAS[ATNO][  1].a[  2] =         5.371923450500;     BAS[ATNO][  1].d[  2] =        -0.025623716846;
  BAS[ATNO][  1].a[  3] =         1.350664674800;     BAS[ATNO][  1].d[  3] =         0.045025095026;
  BAS[ATNO][  1].a[  4] =        18.000000000000;     BAS[ATNO][  1].d[  4] =        -0.010091022169;
  BAS[ATNO][  1].a[  5] =        12.318606250000;     BAS[ATNO][  1].d[  5] =         0.037417438839;
  BAS[ATNO][  1].a[  6] =         5.371923450500;     BAS[ATNO][  1].d[  6] =        -0.109910519908;
  BAS[ATNO][  1].a[  7] =         1.350664674800;     BAS[ATNO][  1].d[  7] =         0.193130904189;
  BAS[ATNO][  1].a[  8] =        18.000000000000;     BAS[ATNO][  1].d[  8] =        -0.024703480734;
  BAS[ATNO][  1].a[  9] =        12.318606250000;     BAS[ATNO][  1].d[  9] =         0.091600331863;
  BAS[ATNO][  1].a[ 10] =         5.371923450500;     BAS[ATNO][  1].d[ 10] =        -0.269068124683;
  BAS[ATNO][  1].a[ 11] =         1.350664674800;     BAS[ATNO][  1].d[ 11] =         0.472797055750;
  BAS[ATNO][  1].a[ 12] =         0.662128168100;     BAS[ATNO][  1].d[ 12] =         0.042796803230;
  BAS[ATNO][  1].a[ 13] =         0.662128168100;     BAS[ATNO][  1].d[ 13] =         0.183572856413;
  BAS[ATNO][  1].a[ 14] =         0.662128168100;     BAS[ATNO][  1].d[ 14] =         0.449398331109;
  BAS[ATNO][  1].a[ 15] =         0.310713851900;     BAS[ATNO][  1].d[ 15] =         0.014461223653;
  BAS[ATNO][  1].a[ 16] =         0.310713851900;     BAS[ATNO][  1].d[ 16] =         0.062030056751;
  BAS[ATNO][  1].a[ 17] =         0.310713851900;     BAS[ATNO][  1].d[ 17] =         0.151853626550;
  BAS[ATNO][  1].a[ 18] =         0.070000000000;     BAS[ATNO][  1].d[ 18] =         0.000751807568;
  BAS[ATNO][  1].a[ 19] =         0.070000000000;     BAS[ATNO][  1].d[ 19] =         0.003224807750;
  BAS[ATNO][  1].a[ 20] =         0.070000000000;     BAS[ATNO][  1].d[ 20] =         0.007894539799;
  BAS[ATNO][  1].a[ 21] =         0.029651190700;     BAS[ATNO][  1].d[ 21] =        -0.000202158698;

  // Basis function   3 L = d
  InitBFNGauss(BAS[ATNO][  2]);
  BAS[ATNO][  2].l  = 2;
  BAS[ATNO][  2].ng = 22;
  BAS[ATNO][  2].a[  0] =        30.000000000000;     BAS[ATNO][  2].d[  0] =         0.000017276474;
  BAS[ATNO][  2].a[  1] =        27.000000000000;     BAS[ATNO][  2].d[  1] =        -0.000028082136;
  BAS[ATNO][  2].a[  2] =        13.078045684000;     BAS[ATNO][  2].d[  2] =         0.000057017822;
  BAS[ATNO][  2].a[  3] =         5.035271286100;     BAS[ATNO][  2].d[  3] =        -0.000293103979;
  BAS[ATNO][  2].a[  4] =         1.048270643800;     BAS[ATNO][  2].d[  4] =         0.002349127438;
  BAS[ATNO][  2].a[  5] =         0.477087734100;     BAS[ATNO][  2].d[  5] =         0.001248666459;
  BAS[ATNO][  2].a[  6] =         0.122258572500;     BAS[ATNO][  2].d[  6] =        -0.029915271106;
  BAS[ATNO][  2].a[  7] =         0.044007400600;     BAS[ATNO][  2].d[  7] =         0.009133164644;
  BAS[ATNO][  2].a[  8] =         7.735287767200;     BAS[ATNO][  2].d[  8] =        -0.010409179716;
  BAS[ATNO][  2].a[  9] =         6.094944361000;     BAS[ATNO][  2].d[  9] =         0.021986915554;
  BAS[ATNO][  2].a[ 10] =         1.387110549700;     BAS[ATNO][  2].d[ 10] =        -0.068530708721;
  BAS[ATNO][  2].a[ 11] =         0.623240278500;     BAS[ATNO][  2].d[ 11] =        -0.114114062377;
  BAS[ATNO][  2].a[ 12] =         7.735287767200;     BAS[ATNO][  2].d[ 12] =         0.031487709598;
  BAS[ATNO][  2].a[ 13] =         6.094944361000;     BAS[ATNO][  2].d[ 13] =        -0.066510294839;
  BAS[ATNO][  2].a[ 14] =         1.387110549700;     BAS[ATNO][  2].d[ 14] =         0.207305005168;
  BAS[ATNO][  2].a[ 15] =         0.623240278500;     BAS[ATNO][  2].d[ 15] =         0.345194391423;
  BAS[ATNO][  2].a[ 16] =         7.735287767200;     BAS[ATNO][  2].d[ 16] =        -0.012157692709;
  BAS[ATNO][  2].a[ 17] =         6.094944361000;     BAS[ATNO][  2].d[ 17] =         0.025680233238;
  BAS[ATNO][  2].a[ 18] =         1.387110549700;     BAS[ATNO][  2].d[ 18] =        -0.080042358811;
  BAS[ATNO][  2].a[ 19] =         0.623240278500;     BAS[ATNO][  2].d[ 19] =        -0.133282712183;
  BAS[ATNO][  2].a[ 20] =         7.735287767200;     BAS[ATNO][  2].d[ 20] =         0.005548220545;
  BAS[ATNO][  2].a[ 21] =         6.094944361000;     BAS[ATNO][  2].d[ 21] =        -0.011719295846;

  // Basis function   4 L = s
  InitBFNGauss(BAS[ATNO][  3]);
  BAS[ATNO][  3].l  = 0;
  BAS[ATNO][  3].ng = 8;
  BAS[ATNO][  3].a[  0] =        30.000000000000;     BAS[ATNO][  3].d[  0] =        -1.927185257335;
  BAS[ATNO][  3].a[  1] =        27.000000000000;     BAS[ATNO][  3].d[  1] =         2.819298065640;
  BAS[ATNO][  3].a[  2] =        13.078045684000;     BAS[ATNO][  3].d[  2] =        -2.772685248023;
  BAS[ATNO][  3].a[  3] =         5.035271286100;     BAS[ATNO][  3].d[  3] =         1.309025276893;
  BAS[ATNO][  3].a[  4] =         1.048270643800;     BAS[ATNO][  3].d[  4] =        -0.594999415714;
  BAS[ATNO][  3].a[  5] =         0.477087734100;     BAS[ATNO][  3].d[  5] =         0.401641244731;
  BAS[ATNO][  3].a[  6] =         0.122258572500;     BAS[ATNO][  3].d[  6] =        -0.135525090806;
  BAS[ATNO][  3].a[  7] =         0.044007400600;     BAS[ATNO][  3].d[  7] =         0.049887578631;

  // Basis function   5 L = d
  InitBFNGauss(BAS[ATNO][  4]);
  BAS[ATNO][  4].l  = 2;
  BAS[ATNO][  4].ng = 22;
  BAS[ATNO][  4].a[  0] =        30.000000000000;     BAS[ATNO][  4].d[  0] =        -0.000081670497;
  BAS[ATNO][  4].a[  1] =        27.000000000000;     BAS[ATNO][  4].d[  1] =         0.000132751738;
  BAS[ATNO][  4].a[  2] =        13.078045684000;     BAS[ATNO][  4].d[  2] =        -0.000269538438;
  BAS[ATNO][  4].a[  3] =         5.035271286100;     BAS[ATNO][  4].d[  3] =         0.001362660051;
  BAS[ATNO][  4].a[  4] =         1.048270643800;     BAS[ATNO][  4].d[  4] =        -0.007294519926;
  BAS[ATNO][  4].a[  5] =         0.477087734100;     BAS[ATNO][  4].d[  5] =        -0.025738845036;
  BAS[ATNO][  4].a[  6] =         0.122258572500;     BAS[ATNO][  4].d[  6] =         0.093469673343;
  BAS[ATNO][  4].a[  7] =         0.044007400600;     BAS[ATNO][  4].d[  7] =         0.640679618443;
  BAS[ATNO][  4].a[  8] =         7.735287767200;     BAS[ATNO][  4].d[  8] =         0.019889638089;
  BAS[ATNO][  4].a[  9] =         6.094944361000;     BAS[ATNO][  4].d[  9] =        -0.042012128237;
  BAS[ATNO][  4].a[ 10] =         1.387110549700;     BAS[ATNO][  4].d[ 10] =         0.130947013276;
  BAS[ATNO][  4].a[ 11] =         0.623240278500;     BAS[ATNO][  4].d[ 11] =         0.218046711028;
  BAS[ATNO][  4].a[ 12] =         7.735287767200;     BAS[ATNO][  4].d[ 12] =        -0.005674794359;
  BAS[ATNO][  4].a[ 13] =         6.094944361000;     BAS[ATNO][  4].d[ 13] =         0.011986652912;
  BAS[ATNO][  4].a[ 14] =         1.387110549700;     BAS[ATNO][  4].d[ 14] =        -0.037361030348;
  BAS[ATNO][  4].a[ 15] =         0.623240278500;     BAS[ATNO][  4].d[ 15] =        -0.062211802958;
  BAS[ATNO][  4].a[ 16] =         7.735287767200;     BAS[ATNO][  4].d[ 16] =        -0.004039630584;
  BAS[ATNO][  4].a[ 17] =         6.094944361000;     BAS[ATNO][  4].d[ 17] =         0.008532758483;
  BAS[ATNO][  4].a[ 18] =         1.387110549700;     BAS[ATNO][  4].d[ 18] =        -0.026595635241;
  BAS[ATNO][  4].a[ 19] =         0.623240278500;     BAS[ATNO][  4].d[ 19] =        -0.044285781302;
  BAS[ATNO][  4].a[ 20] =         7.735287767200;     BAS[ATNO][  4].d[ 20] =         0.022929405406;
  BAS[ATNO][  4].a[ 21] =         6.094944361000;     BAS[ATNO][  4].d[ 21] =        -0.048432913460;

  // Basis function   6 L = p
  InitBFNGauss(BAS[ATNO][  5]);
  BAS[ATNO][  5].l  = 1;
  BAS[ATNO][  5].ng = 22;
  BAS[ATNO][  5].a[  0] =        18.000000000000;     BAS[ATNO][  5].d[  0] =         0.002435768003;
  BAS[ATNO][  5].a[  1] =        12.318606250000;     BAS[ATNO][  5].d[  1] =        -0.009031810530;
  BAS[ATNO][  5].a[  2] =         5.371923450500;     BAS[ATNO][  5].d[  2] =         0.026530169404;
  BAS[ATNO][  5].a[  3] =         1.350664674800;     BAS[ATNO][  5].d[  3] =        -0.046617881615;
  BAS[ATNO][  5].a[  4] =        18.000000000000;     BAS[ATNO][  5].d[  4] =        -0.001579187500;
  BAS[ATNO][  5].a[  5] =        12.318606250000;     BAS[ATNO][  5].d[  5] =         0.005855616081;
  BAS[ATNO][  5].a[  6] =         5.371923450500;     BAS[ATNO][  5].d[  6] =        -0.017200370411;
  BAS[ATNO][  5].a[  7] =         1.350664674800;     BAS[ATNO][  5].d[  7] =         0.030223886600;
  BAS[ATNO][  5].a[  8] =        18.000000000000;     BAS[ATNO][  5].d[  8] =         0.000413114298;
  BAS[ATNO][  5].a[  9] =        12.318606250000;     BAS[ATNO][  5].d[  9] =        -0.001531824896;
  BAS[ATNO][  5].a[ 10] =         5.371923450500;     BAS[ATNO][  5].d[ 10] =         0.004499604356;
  BAS[ATNO][  5].a[ 11] =         1.350664674800;     BAS[ATNO][  5].d[ 11] =        -0.007906546693;
  BAS[ATNO][  5].a[ 12] =         0.662128168100;     BAS[ATNO][  5].d[ 12] =        -0.089772704716;
  BAS[ATNO][  5].a[ 13] =         0.662128168100;     BAS[ATNO][  5].d[ 13] =         0.058202559900;
  BAS[ATNO][  5].a[ 14] =         0.662128168100;     BAS[ATNO][  5].d[ 14] =        -0.015225747224;
  BAS[ATNO][  5].a[ 15] =         0.310713851900;     BAS[ATNO][  5].d[ 15] =         0.061870139074;
  BAS[ATNO][  5].a[ 16] =         0.310713851900;     BAS[ATNO][  5].d[ 16] =        -0.040112420438;
  BAS[ATNO][  5].a[ 17] =         0.310713851900;     BAS[ATNO][  5].d[ 17] =         0.010493379933;
  BAS[ATNO][  5].a[ 18] =         0.070000000000;     BAS[ATNO][  5].d[ 18] =        -0.124906133493;
  BAS[ATNO][  5].a[ 19] =         0.070000000000;     BAS[ATNO][  5].d[ 19] =         0.080980702760;
  BAS[ATNO][  5].a[ 20] =         0.070000000000;     BAS[ATNO][  5].d[ 20] =        -0.021184492784;
  BAS[ATNO][  5].a[ 21] =         0.029651190700;     BAS[ATNO][  5].d[ 21] =         0.919510997067;

  // Basis function   7 L = p
  InitBFNGauss(BAS[ATNO][  6]);
  BAS[ATNO][  6].l  = 1;
  BAS[ATNO][  6].ng = 22;
  BAS[ATNO][  6].a[  0] =        18.000000000000;     BAS[ATNO][  6].d[  0] =         0.005200455052;
  BAS[ATNO][  6].a[  1] =        12.318606250000;     BAS[ATNO][  6].d[  1] =        -0.019283250556;
  BAS[ATNO][  6].a[  2] =         5.371923450500;     BAS[ATNO][  6].d[  2] =         0.056642895932;
  BAS[ATNO][  6].a[  3] =         1.350664674800;     BAS[ATNO][  6].d[  3] =        -0.099530906744;
  BAS[ATNO][  6].a[  4] =        18.000000000000;     BAS[ATNO][  6].d[  4] =        -0.003371623899;
  BAS[ATNO][  6].a[  5] =        12.318606250000;     BAS[ATNO][  6].d[  5] =         0.012501957573;
  BAS[ATNO][  6].a[  6] =         5.371923450500;     BAS[ATNO][  6].d[  6] =        -0.036723428952;
  BAS[ATNO][  6].a[  7] =         1.350664674800;     BAS[ATNO][  6].d[  7] =         0.064529119181;
  BAS[ATNO][  6].a[  8] =        18.000000000000;     BAS[ATNO][  6].d[  8] =         0.000882014353;
  BAS[ATNO][  6].a[  9] =        12.318606250000;     BAS[ATNO][  6].d[  9] =        -0.003270502984;
  BAS[ATNO][  6].a[ 10] =         5.371923450500;     BAS[ATNO][  6].d[ 10] =         0.009606822232;
  BAS[ATNO][  6].a[ 11] =         1.350664674800;     BAS[ATNO][  6].d[ 11] =        -0.016880770518;
  BAS[ATNO][  6].a[ 12] =         0.662128168100;     BAS[ATNO][  6].d[ 12] =        -0.123168282232;
  BAS[ATNO][  6].a[ 13] =         0.662128168100;     BAS[ATNO][  6].d[ 13] =         0.079853997352;
  BAS[ATNO][  6].a[ 14] =         0.662128168100;     BAS[ATNO][  6].d[ 14] =        -0.020889747472;
  BAS[ATNO][  6].a[ 15] =         0.310713851900;     BAS[ATNO][  6].d[ 15] =        -0.120135298563;
  BAS[ATNO][  6].a[ 16] =         0.310713851900;     BAS[ATNO][  6].d[ 16] =         0.077887615541;
  BAS[ATNO][  6].a[ 17] =         0.310713851900;     BAS[ATNO][  6].d[ 17] =        -0.020375343424;
  BAS[ATNO][  6].a[ 18] =         0.070000000000;     BAS[ATNO][  6].d[ 18] =         1.501124157594;
  BAS[ATNO][  6].a[ 19] =         0.070000000000;     BAS[ATNO][  6].d[ 19] =        -0.973227541478;
  BAS[ATNO][  6].a[ 20] =         0.070000000000;     BAS[ATNO][  6].d[ 20] =         0.254595615099;
  BAS[ATNO][  6].a[ 21] =         0.029651190700;     BAS[ATNO][  6].d[ 21] =        -1.108216936097;

  // Basis function   8 L = p
  InitBFNGauss(BAS[ATNO][  7]);
  BAS[ATNO][  7].l  = 1;
  BAS[ATNO][  7].ng = 22;
  BAS[ATNO][  7].a[  0] =        18.000000000000;     BAS[ATNO][  7].d[  0] =         0.093809444829;
  BAS[ATNO][  7].a[  1] =        12.318606250000;     BAS[ATNO][  7].d[  1] =        -0.347844758018;
  BAS[ATNO][  7].a[  2] =         5.371923450500;     BAS[ATNO][  7].d[  2] =         1.021764166321;
  BAS[ATNO][  7].a[  3] =         1.350664674800;     BAS[ATNO][  7].d[  3] =        -1.795408096285;
  BAS[ATNO][  7].a[  4] =        18.000000000000;     BAS[ATNO][  7].d[  4] =         0.128612879025;
  BAS[ATNO][  7].a[  5] =        12.318606250000;     BAS[ATNO][  7].d[  5] =        -0.476895645892;
  BAS[ATNO][  7].a[  6] =         5.371923450500;     BAS[ATNO][  7].d[  6] =         1.400840089768;
  BAS[ATNO][  7].a[  7] =         1.350664674800;     BAS[ATNO][  7].d[  7] =        -2.461506991213;
  BAS[ATNO][  7].a[  8] =        18.000000000000;     BAS[ATNO][  7].d[  8] =        -0.061470139107;
  BAS[ATNO][  7].a[  9] =        12.318606250000;     BAS[ATNO][  7].d[  9] =         0.227930841099;
  BAS[ATNO][  7].a[ 10] =         5.371923450500;     BAS[ATNO][  7].d[ 10] =        -0.669527312016;
  BAS[ATNO][  7].a[ 11] =         1.350664674800;     BAS[ATNO][  7].d[ 11] =         1.176469870739;
  BAS[ATNO][  7].a[ 12] =         0.662128168100;     BAS[ATNO][  7].d[ 12] =         2.212084731248;
  BAS[ATNO][  7].a[ 13] =         0.662128168100;     BAS[ATNO][  7].d[ 13] =         3.032771235905;
  BAS[ATNO][  7].a[ 14] =         0.662128168100;     BAS[ATNO][  7].d[ 14] =        -1.449503900100;
  BAS[ATNO][  7].a[ 15] =         0.310713851900;     BAS[ATNO][  7].d[ 15] =        -1.126340177523;
  BAS[ATNO][  7].a[ 16] =         0.310713851900;     BAS[ATNO][  7].d[ 16] =        -1.544213946230;
  BAS[ATNO][  7].a[ 17] =         0.310713851900;     BAS[ATNO][  7].d[ 17] =         0.738052415939;
  BAS[ATNO][  7].a[ 18] =         0.070000000000;     BAS[ATNO][  7].d[ 18] =         0.337453184918;
  BAS[ATNO][  7].a[ 19] =         0.070000000000;     BAS[ATNO][  7].d[ 19] =         0.462648784754;
  BAS[ATNO][  7].a[ 20] =         0.070000000000;     BAS[ATNO][  7].d[ 20] =        -0.221121596624;
  BAS[ATNO][  7].a[ 21] =         0.029651190700;     BAS[ATNO][  7].d[ 21] =        -0.156364493558;

  // Basis function   9 L = d
  InitBFNGauss(BAS[ATNO][  8]);
  BAS[ATNO][  8].l  = 2;
  BAS[ATNO][  8].ng = 22;
  BAS[ATNO][  8].a[  0] =        30.000000000000;     BAS[ATNO][  8].d[  0] =         0.000002766629;
  BAS[ATNO][  8].a[  1] =        27.000000000000;     BAS[ATNO][  8].d[  1] =        -0.000004497031;
  BAS[ATNO][  8].a[  2] =        13.078045684000;     BAS[ATNO][  8].d[  2] =         0.000009130749;
  BAS[ATNO][  8].a[  3] =         5.035271286100;     BAS[ATNO][  8].d[  3] =        -0.000049865279;
  BAS[ATNO][  8].a[  4] =         1.048270643800;     BAS[ATNO][  8].d[  4] =         0.001178821417;
  BAS[ATNO][  8].a[  5] =         0.477087734100;     BAS[ATNO][  8].d[  5] =        -0.005256850982;
  BAS[ATNO][  8].a[  6] =         0.122258572500;     BAS[ATNO][  8].d[  6] =         0.036551274534;
  BAS[ATNO][  8].a[  7] =         0.044007400600;     BAS[ATNO][  8].d[  7] =        -0.085758986184;
  BAS[ATNO][  8].a[  8] =         7.735287767200;     BAS[ATNO][  8].d[  8] =        -0.004707266415;
  BAS[ATNO][  8].a[  9] =         6.094944361000;     BAS[ATNO][  8].d[  9] =         0.009942980329;
  BAS[ATNO][  8].a[ 10] =         1.387110549700;     BAS[ATNO][  8].d[ 10] =        -0.030991135936;
  BAS[ATNO][  8].a[ 11] =         0.623240278500;     BAS[ATNO][  8].d[ 11] =        -0.051604959081;
  BAS[ATNO][  8].a[ 12] =         7.735287767200;     BAS[ATNO][  8].d[ 12] =         0.013881340547;
  BAS[ATNO][  8].a[ 13] =         6.094944361000;     BAS[ATNO][  8].d[ 13] =        -0.029321029200;
  BAS[ATNO][  8].a[ 14] =         1.387110549700;     BAS[ATNO][  8].d[ 14] =         0.091390304683;
  BAS[ATNO][  8].a[ 15] =         0.623240278500;     BAS[ATNO][  8].d[ 15] =         0.152178769545;
  BAS[ATNO][  8].a[ 16] =         7.735287767200;     BAS[ATNO][  8].d[ 16] =        -0.005318764592;
  BAS[ATNO][  8].a[ 17] =         6.094944361000;     BAS[ATNO][  8].d[ 17] =         0.011234624737;
  BAS[ATNO][  8].a[ 18] =         1.387110549700;     BAS[ATNO][  8].d[ 18] =        -0.035017044277;
  BAS[ATNO][  8].a[ 19] =         0.623240278500;     BAS[ATNO][  8].d[ 19] =        -0.058308709328;
  BAS[ATNO][  8].a[ 20] =         7.735287767200;     BAS[ATNO][  8].d[ 20] =         0.002288667919;
  BAS[ATNO][  8].a[ 21] =         6.094944361000;     BAS[ATNO][  8].d[ 21] =        -0.004834266450;

  // Basis function  10 L = d
  InitBFNGauss(BAS[ATNO][  9]);
  BAS[ATNO][  9].l  = 2;
  BAS[ATNO][  9].ng = 22;
  BAS[ATNO][  9].a[  0] =        30.000000000000;     BAS[ATNO][  9].d[  0] =         0.000035228502;
  BAS[ATNO][  9].a[  1] =        27.000000000000;     BAS[ATNO][  9].d[  1] =        -0.000057262353;
  BAS[ATNO][  9].a[  2] =        13.078045684000;     BAS[ATNO][  9].d[  2] =         0.000116265185;
  BAS[ATNO][  9].a[  3] =         5.035271286100;     BAS[ATNO][  9].d[  3] =        -0.000613523074;
  BAS[ATNO][  9].a[  4] =         1.048270643800;     BAS[ATNO][  9].d[  4] =         0.006917495202;
  BAS[ATNO][  9].a[  5] =         0.477087734100;     BAS[ATNO][  9].d[  5] =        -0.009152624407;
  BAS[ATNO][  9].a[  6] =         0.122258572500;     BAS[ATNO][  9].d[  6] =        -0.014583466449;
  BAS[ATNO][  9].a[  7] =         0.044007400600;     BAS[ATNO][  9].d[  7] =         0.013814188311;
  BAS[ATNO][  9].a[  8] =         7.735287767200;     BAS[ATNO][  9].d[  8] =         0.038747580241;
  BAS[ATNO][  9].a[  9] =         6.094944361000;     BAS[ATNO][  9].d[  9] =        -0.081845044275;
  BAS[ATNO][  9].a[ 10] =         1.387110549700;     BAS[ATNO][  9].d[ 10] =         0.255101670613;
  BAS[ATNO][  9].a[ 11] =         0.623240278500;     BAS[ATNO][  9].d[ 11] =         0.424783115424;
  BAS[ATNO][  9].a[ 12] =         7.735287767200;     BAS[ATNO][  9].d[ 12] =        -0.010543477093;
  BAS[ATNO][  9].a[ 13] =         6.094944361000;     BAS[ATNO][  9].d[ 13] =         0.022270586812;
  BAS[ATNO][  9].a[ 14] =         1.387110549700;     BAS[ATNO][  9].d[ 14] =        -0.069414879685;
  BAS[ATNO][  9].a[ 15] =         0.623240278500;     BAS[ATNO][  9].d[ 15] =        -0.115586341629;
  BAS[ATNO][  9].a[ 16] =         7.735287767200;     BAS[ATNO][  9].d[ 16] =        -0.008125830143;
  BAS[ATNO][  9].a[ 17] =         6.094944361000;     BAS[ATNO][  9].d[ 17] =         0.017163882846;
  BAS[ATNO][  9].a[ 18] =         1.387110549700;     BAS[ATNO][  9].d[ 18] =        -0.053497865716;
  BAS[ATNO][  9].a[ 19] =         0.623240278500;     BAS[ATNO][  9].d[ 19] =        -0.089082090340;
  BAS[ATNO][  9].a[ 20] =         7.735287767200;     BAS[ATNO][  9].d[ 20] =         0.044984343575;
  BAS[ATNO][  9].a[ 21] =         6.094944361000;     BAS[ATNO][  9].d[ 21] =        -0.095018722942;

  // Basis function  11 L = p
  InitBFNGauss(BAS[ATNO][ 10]);
  BAS[ATNO][ 10].l  = 1;
  BAS[ATNO][ 10].ng = 22;
  BAS[ATNO][ 10].a[  0] =        18.000000000000;     BAS[ATNO][ 10].d[  0] =         0.014985712872;
  BAS[ATNO][ 10].a[  1] =        12.318606250000;     BAS[ATNO][ 10].d[  1] =        -0.055566917351;
  BAS[ATNO][ 10].a[  2] =         5.371923450500;     BAS[ATNO][ 10].d[  2] =         0.163223057624;
  BAS[ATNO][ 10].a[  3] =         1.350664674800;     BAS[ATNO][ 10].d[  3] =        -0.286809822480;
  BAS[ATNO][ 10].a[  4] =        18.000000000000;     BAS[ATNO][ 10].d[  4] =         0.064279803834;
  BAS[ATNO][ 10].a[  5] =        12.318606250000;     BAS[ATNO][ 10].d[  5] =        -0.238349058038;
  BAS[ATNO][ 10].a[  6] =         5.371923450500;     BAS[ATNO][ 10].d[  6] =         0.700129931430;
  BAS[ATNO][ 10].a[  7] =         1.350664674800;     BAS[ATNO][ 10].d[  7] =        -1.230243718436;
  BAS[ATNO][ 10].a[  8] =        18.000000000000;     BAS[ATNO][ 10].d[  8] =         0.157361154207;
  BAS[ATNO][ 10].a[  9] =        12.318606250000;     BAS[ATNO][ 10].d[  9] =        -0.583494046962;
  BAS[ATNO][ 10].a[ 10] =         5.371923450500;     BAS[ATNO][ 10].d[ 10] =         1.713963757408;
  BAS[ATNO][ 10].a[ 11] =         1.350664674800;     BAS[ATNO][ 10].d[ 11] =        -3.011716899282;
  BAS[ATNO][ 10].a[ 12] =         0.662128168100;     BAS[ATNO][ 10].d[ 12] =         0.353395686577;
  BAS[ATNO][ 10].a[ 13] =         0.662128168100;     BAS[ATNO][ 10].d[ 13] =         1.515857510650;
  BAS[ATNO][ 10].a[ 14] =         0.662128168100;     BAS[ATNO][ 10].d[ 14] =         3.710918099651;
  BAS[ATNO][ 10].a[ 15] =         0.310713851900;     BAS[ATNO][ 10].d[ 15] =        -0.179960761822;
  BAS[ATNO][ 10].a[ 16] =         0.310713851900;     BAS[ATNO][ 10].d[ 16] =        -0.771924737033;
  BAS[ATNO][ 10].a[ 17] =         0.310713851900;     BAS[ATNO][ 10].d[ 17] =        -1.889722126320;
  BAS[ATNO][ 10].a[ 18] =         0.070000000000;     BAS[ATNO][ 10].d[ 18] =         0.053930780301;
  BAS[ATNO][ 10].a[ 19] =         0.070000000000;     BAS[ATNO][ 10].d[ 19] =         0.231331002270;
  BAS[ATNO][ 10].a[ 20] =         0.070000000000;     BAS[ATNO][ 10].d[ 20] =         0.566313388498;
  BAS[ATNO][ 10].a[ 21] =         0.029651190700;     BAS[ATNO][ 10].d[ 21] =        -0.024991398936;

-------------------------------------------
RADIAL EXPECTATION VALUES <R**-3> TO <R**3>
-------------------------------------------
   0 :     0.000000     1.097549     1.005788     1.081990     1.277189     1.647628
   1 :     0.910842     0.854181     0.880354     1.255692     1.747796     2.702576
   2 :     0.908349     0.852336     0.879215     1.258105     1.756119     2.726863
   3 :     0.907736     0.851882     0.878935     1.258698     1.758165     2.732830
   4 :     0.345207     0.417346     0.592325     2.032412     4.994180    73.581107
   5 :     0.000000     0.171778     0.357622     3.220769    12.093823    51.336020
   6 :     0.000000     0.106276     0.262279     4.938443    28.196859   175.062181
   7 :     0.000000     0.619156     0.673154     2.145420     6.739169    29.615297
   8 :     0.000000     5.425085     2.062095     0.591321     0.568196     1.368133
   9 :     0.000000    48.659231     5.608572     0.238489     0.096277     0.146956
  10 :     0.359886     0.432786     0.605477     1.972274     4.683126    61.483948
  11 :     0.364777     0.436802     0.609502     1.945398     4.505043    61.871928
  12 :     0.363852     0.435911     0.608749     1.948849     4.523502    62.294860
  13 :     0.360871     0.432981     0.606204     1.961251     4.591875    63.904154
  14 :     0.015599     0.040698     0.178709     6.384102    44.814692   339.935678
  15 :     0.015022     0.039633     0.176577     6.442825    45.540801   347.251692
  16 :     0.014836     0.039312     0.175959     6.459574    45.747629   349.335240
  17 :     0.050943     0.089310     0.250297     5.329636    36.023771   287.543816
  18 :     0.051613     0.090242     0.251983     5.280030    35.391132   281.061117
  19 :     0.051745     0.090457     0.252421     5.266160    35.212589   279.222925
  20 :     0.070659     0.113473     0.283361     4.232133    19.577324   477.061617
  21 :    10.883137     3.441882     1.480467     1.327221     3.540326    16.581923
  22 :     0.070924     0.113762     0.283652     4.230049    19.561796   477.289676
  23 :     0.071248     0.114116     0.283983     4.228517    19.554756   477.173039
  24 :     0.087309     0.130661     0.299248     4.142198    19.040751   464.134108
  25 :     0.072538     0.115519     0.285299     4.222218    19.524424   476.619185
  26 :     0.330671     0.345773     0.493926     2.876599    11.888770    69.058382
  27 :     0.333136     0.347752     0.495493     2.865228    11.788221    68.210290
  28 :     0.333823     0.348313     0.495950     2.861802    11.758240    67.961598
  29 :     0.405704     0.429019     0.563873     2.447466     7.870021   155.561242
  30 :     0.406215     0.429394     0.564182     2.445904     7.860254   155.293934
  31 :     0.406816     0.429931     0.564604     2.443985     7.848835   154.987639
  32 :     0.409329     0.431922     0.565734     2.446896     7.893187   156.720487
  33 :     0.408508     0.431458     0.565833     2.437882     7.810794   153.932200
  34 :    10.883221     3.441884     1.480445     1.327426     3.541920    16.594064
  35 :    10.883157     3.441882     1.480462     1.327266     3.540676    16.584553
Making the total density                ... o.k.
o.k.
Initializing the integrals              ... done
Making exponents                        ... done
Making rho(0)                           ... done (         0.000050057)
Integral calculation                    ... Two index integrals                     ... done
Solving the equation system             ... done
atomic density will be written to file TMB20_T2_atom75.adf

-------
TIMINGS
-------

Total SCF time: 0 days 0 hours 0 min 1 sec 

Total time                  ....       1.034 sec
Sum of individual times     ....       0.722 sec  ( 69.8%)

Fock matrix formation       ....       0.479 sec  ( 46.3%)
Diagonalization             ....       0.236 sec  ( 22.8%)
Density matrix formation    ....       0.001 sec  (  0.1%)
Population analysis         ....       0.000 sec  (  0.0%)
Initial guess               ....       0.000 sec  (  0.0%)
Orbital Transformation      ....       0.000 sec  (  0.0%)
Orbital Orthonormalization  ....       0.000 sec  (  0.0%)
DIIS solution               ....       0.006 sec  (  0.6%)

-------------------------   --------------------
FINAL SINGLE POINT ENERGY       -77.460918858948
-------------------------   --------------------


                            ***************************************
                            *     ORCA property calculations      *
                            ***************************************

                                    ---------------------
                                    Active property flags
                                    ---------------------
   (+) Dipole Moment


------------------------------------------------------------------------------
                       ORCA ELECTRIC PROPERTIES CALCULATION
------------------------------------------------------------------------------

Dipole Moment Calculation                       ... on
Quadrupole Moment Calculation                   ... off
Polarizability Calculation                      ... off
GBWName                                         ... TMB20_T2_atom75.gbw
Electron density file                           ... TMB20_T2_atom75.scfp
The origin for moment calculation is the CENTER OF MASS  = ( 0.000000,  0.000000  0.000000)

-------------
DIPOLE MOMENT
-------------
                                X             Y             Z
Electronic contribution:     -0.00000       0.00000       0.00000
Nuclear contribution   :      0.00000       0.00000       0.00000
                        -----------------------------------------
Total Dipole Moment    :     -0.00000       0.00000       0.00000
                        -----------------------------------------
Magnitude (a.u.)       :      0.00000
Magnitude (Debye)      :      0.00000



--------------------
Rotational spectrum 
--------------------
 
Rotational constants in cm-1:     0.000000     0.000000     0.000000 
Rotational constants in MHz :     0.000000     0.000000     0.000000 

 Dipole components along the rotational axes: 
x,y,z [a.u.] :    -0.000000     0.000000     0.000000 
x,y,z [Debye]:    -0.000000     0.000000     0.000000 

 

Timings for individual modules:

Sum of individual times         ...        1.297 sec (=   0.022 min)
GTO integral calculation        ...        0.245 sec (=   0.004 min)  18.9 %
SCF iterations                  ...        1.052 sec (=   0.018 min)  81.1 %
                             ****ORCA TERMINATED NORMALLY****
TOTAL RUN TIME: 0 days 0 hours 0 minutes 1 seconds 435 msec
