
                                 *****************
                                 * O   R   C   A *
                                 *****************

           --- An Ab Initio, DFT and Semiempirical electronic structure package ---

                  #######################################################
                  #                        -***-                        #
                  #          Department of theory and spectroscopy      #
                  #               Directorship: Frank Neese             #
                  #        Max Planck Institute fuer Kohlenforschung    #
                  #                Kaiser Wilhelm Platz 1               #
                  #                 D-45470 Muelheim/Ruhr               #
                  #                      Germany                        #
                  #                                                     #
                  #                  All rights reserved                #
                  #                        -***-                        #
                  #######################################################


                         Program Version 4.2.0 -  RELEASE  -


 With contributions from (in alphabetic order):
   Daniel Aravena         : Magnetic Suceptibility
   Michael Atanasov       : Ab Initio Ligand Field Theory (pilot matlab implementation)
   Alexander A. Auer      : GIAO ZORA, VPT2
   Ute Becker             : Parallelization
   Giovanni Bistoni       : ED, misc. LED, open-shell LED, HFLED
   Martin Brehm           : Molecular dynamics
   Dmytro Bykov           : SCF Hessian
   Vijay G. Chilkuri      : MRCI spin determinant printing, contributions to CSF-ICE
   Dipayan Datta          : RHF DLPNO-CCSD density
   Achintya Kumar Dutta   : EOM-CC, STEOM-CC
   Dmitry Ganyushin       : Spin-Orbit,Spin-Spin,Magnetic field MRCI
   Miquel Garcia          : C-PCM Hessian, Gaussian charge scheme
   Yang Guo               : DLPNO-NEVPT2, CIM, IAO-localization
   Andreas Hansen         : Spin unrestricted coupled pair/coupled cluster methods
   Benjamin Helmich-Paris : CASSCF linear response (MC-RPA)
   Lee Huntington         : MR-EOM, pCC
   Robert Izsak           : Overlap fitted RIJCOSX, COSX-SCS-MP3, EOM
   Christian Kollmar      : KDIIS, OOCD, Brueckner-CCSD(T), CCSD density
   Simone Kossmann        : Meta GGA functionals, TD-DFT gradient, OOMP2, MP2 Hessian
   Martin Krupicka        : AUTO-CI
   Lucas Lang             : DCDCAS
   Dagmar Lenk            : GEPOL surface, SMD
   Dimitrios Liakos       : Extrapolation schemes; Compound Job, initial MDCI parallelization
   Dimitrios Manganas     : Further ROCIS development; embedding schemes
   Dimitrios Pantazis     : SARC Basis sets
   Taras Petrenko         : DFT Hessian,TD-DFT gradient, ASA, ECA, R-Raman, ABS, FL, XAS/XES, NRVS
   Peter Pinski           : DLPNO-MP2, DLPNO-MP2 Gradient
   Christoph Reimann      : Effective Core Potentials
   Marius Retegan         : Local ZFS, SOC
   Christoph Riplinger    : Optimizer, TS searches, QM/MM, DLPNO-CCSD(T), (RO)-DLPNO pert. Triples
   Tobias Risthaus        : Range-separated hybrids, TD-DFT gradient, RPA, STAB
   Michael Roemelt        : Original ROCIS implementation
   Masaaki Saitow         : Open-shell DLPNO-CCSD energy and density
   Barbara Sandhoefer     : DKH picture change effects
   Avijit Sen             : IP-ROCIS
   Kantharuban Sivalingam : CASSCF convergence, NEVPT2, FIC-MRCI
   Bernardo de Souza      : ESD, SOC TD-DFT
   Georgi Stoychev        : AutoAux, RI-MP2 NMR
   Willem Van den Heuvel  : Paramagnetic NMR
   Boris Wezisla          : Elementary symmetry handling
   Frank Wennmohs         : Technical directorship


 We gratefully acknowledge several colleagues who have allowed us to
 interface, adapt or use parts of their codes:
   Stefan Grimme, W. Hujo, H. Kruse,             : VdW corrections, initial TS optimization,
                  C. Bannwarth                     DFT functionals, gCP, sTDA/sTD-DF
   Ed Valeev, F. Pavosevic, A. Kumar             : LibInt (2-el integral package), F12 methods
   Garnet Chan, S. Sharma, J. Yang, R. Olivares  : DMRG
   Ulf Ekstrom                                   : XCFun DFT Library
   Mihaly Kallay                                 : mrcc  (arbitrary order and MRCC methods)
   Andreas Klamt, Michael Diedenhofen            : otool_cosmo (COSMO solvation model)
   Jiri Pittner, Ondrej Demel                    : Mk-CCSD
   Frank Weinhold                                : gennbo (NPA and NBO analysis)
   Christopher J. Cramer and Donald G. Truhlar   : smd solvation model
   Lars Goerigk                                  : TD-DFT with DH, B97 family of functionals
   V. Asgeirsson, H. Jonsson                     : NEB implementation
   FAccTs GmbH                                   : IRC, NEB, NEB-TS, Multilevel, MM, QM/MM, CI optimization
   S Lehtola, MJT Oliveira, MAL Marques          : LibXC Library


 Your calculation uses the libint2 library for the computation of 2-el integrals
 For citations please refer to: http://libint.valeyev.net

 Your ORCA version has been built with support for libXC version: 4.2.3
 For citations please refer to: https://tddft.org/programs/libxc/

 This ORCA versions uses:
   CBLAS   interface :  Fast vector & matrix operations
   LAPACKE interface :  Fast linear algebra routines
   SCALAPACK package :  Parallel linear algebra routines


Your calculation utilizes the atom-pairwise dispersion correction
with the Becke-Johnson damping scheme (D3BJ)
Cite in your paper:
S.Grimme, S.Ehrlich, L.Goerigk, J Comput Chem, (2011), 32, 1456–1465 
S.Grimme, J.Antony, S.Ehrlich and H.Krieg, J.Chem.Phys., 132, (2010), 154104 
   

----- Orbital basis set information -----
Your calculation utilizes the basis: def2-TZVPPD
   F. Weigend and R. Ahlrichs, Phys. Chem. Chem. Phys. 7, 3297 (2005).
   D. Rappoport and F. Furche, J. Chem. Phys. 133 134105 (2010).

----- AuxJ basis set information -----
Your calculation utilizes the auxiliary basis: def2/J
   F. Weigend, Phys. Chem. Chem. Phys. 8, 1057 (2006).

cite the ECPs for Au [Def2-ECP] as follows:
Ce-Yb(ecp-28): M. Dolg, H. Stoll, H.Preuss, J. Chem. Phys., 1989, 90, 1730-1734.
Y-Cd(ecp-28), Hf-Hg(ecp-46): D. Andrae,U. Haeussermann, M. Dolg, H. Stoll, H. Preuss, Theor. Chim. Acta, 1990, 77, 123-141.
In-Sb(ecp-28), Tl-Bi(ecp-46): B. Metz, H. Stoll, M. Dolg, J. Chem. Phys., 2000, 113, 2563-2569.
Te-Xe(ecp-28), Po-Rn(ecp-46): K. A. Peterson, D. Figgen, E. Goll, H. Stoll, M. Dolg, J. Chem. Phys., 2003, 119, 11113-11123.
Rb(ecp-28), Cs(ecp-46): T. Leininger, A. Nicklass, W. Kuechle, H. Stoll, M. Dolg, A. Bergner, Chem. Phys. Lett., 1996, 255, 274-280.
Sr(ecp-28), Ba(ecp-46): M. Kaupp, P. V. Schleyer, H. Stoll and H. Preuss, J. Chem. Phys., 1991, 94, 1360-1366.
La(ecp-46): M. Dolg, H. Stoll, A. Savin, H. Preuss, Theor. Chim. Acta, 1989, 75, 173-194.
Lu(ecp-28): X. Cao, M. Dolg, J. Chem. Phys., 2001, 115, 7348-7355.

ECP parameters for Au [Def2-ECP] have been obtained from:
TURBOMOLE (7.0.2)

================================================================================
                                        WARNINGS
                       Please study these warnings very carefully!
================================================================================


INFO   : the flag for use of LIBINT has been found!

================================================================================
                                       INPUT FILE
================================================================================
NAME = TMB26_C1.in
|  1> #
|  2> # TMB26_C1 TPSS-D3BJ/Def2-TZVPPD
|  3> #
|  4> ! tpss d3bj def2-tzvppd def2/j grid4 nofinalgrid
|  5> 
|  6> *xyz 0 1
|  7> C        2.167128    1.329895    0.039526 
|  8> C        2.525644    0.739273   -1.166486 
|  9> C        3.439975   -0.306708   -1.174383 
| 10> C        3.999633   -0.766755    0.014468 
| 11> C        3.640245   -0.158436    1.215781 
| 12> C        2.734668    0.894978    1.231934 
| 13> H        2.127840    1.087811   -2.109674 
| 14> H        4.700013   -1.586902    0.006791 
| 15> H        2.446371    1.320973    2.183519 
| 16> C        1.181573    2.421289    0.068499 
| 17> C        1.441057    3.589123    0.775147 
| 18> C       -0.063177    2.327678   -0.606474 
| 19> C        0.528793    4.632414    0.796916 
| 20> H        2.386085    3.685262    1.294444 
| 21> C       -0.980026    3.398239   -0.582106 
| 22> C       -0.681931    4.545260    0.115481 
| 23> H        0.768969    5.533734    1.348653 
| 24> H       -1.927777    3.275890   -1.088947 
| 25> H       -1.387173    5.365524    0.142831 
| 26> C       -0.458921    1.154963   -1.244997 
| 27> C       -0.929867    0.115196   -1.736149 
| 28> H       -0.939302   -0.474790   -2.633558 
| 29> Au      -1.934281   -0.752855   -0.093938 
| 30> Cl      -0.307197   -2.360512   -0.181170 
| 31> Cl      -3.051038   -1.907317    1.520981 
| 32> Cl      -3.535590    0.885204   -0.082121 
| 33> O        3.733505   -0.820421   -2.387318 
| 34> O        4.122752   -0.537296    2.416831 
| 35> C        4.611393   -1.919557   -2.452177 
| 36> H        4.218896   -2.777901   -1.898414 
| 37> H        4.691177   -2.180906   -3.505103 
| 38> H        5.605429   -1.663635   -2.071314 
| 39> C        4.983111   -1.650773    2.472584 
| 40> H        5.218240   -1.797897    3.524384 
| 41> H        4.497038   -2.550975    2.084317 
| 42> H        5.911564   -1.470782    1.920934 
| 43> *
| 44> 
| 45> %maxcore 5000
| 46> 
| 47> %pal
| 48> nprocs = 24
| 49> end
| 50> 
| 51> 
| 52>                          ****END OF INPUT****
================================================================================

                       ****************************
                       * Single Point Calculation *
                       ****************************

---------------------------------
CARTESIAN COORDINATES (ANGSTROEM)
---------------------------------
  C      2.167128    1.329895    0.039526
  C      2.525644    0.739273   -1.166486
  C      3.439975   -0.306708   -1.174383
  C      3.999633   -0.766755    0.014468
  C      3.640245   -0.158436    1.215781
  C      2.734668    0.894978    1.231934
  H      2.127840    1.087811   -2.109674
  H      4.700013   -1.586902    0.006791
  H      2.446371    1.320973    2.183519
  C      1.181573    2.421289    0.068499
  C      1.441057    3.589123    0.775147
  C     -0.063177    2.327678   -0.606474
  C      0.528793    4.632414    0.796916
  H      2.386085    3.685262    1.294444
  C     -0.980026    3.398239   -0.582106
  C     -0.681931    4.545260    0.115481
  H      0.768969    5.533734    1.348653
  H     -1.927777    3.275890   -1.088947
  H     -1.387173    5.365524    0.142831
  C     -0.458921    1.154963   -1.244997
  C     -0.929867    0.115196   -1.736149
  H     -0.939302   -0.474790   -2.633558
  Au    -1.934281   -0.752855   -0.093938
  Cl    -0.307197   -2.360512   -0.181170
  Cl    -3.051038   -1.907317    1.520981
  Cl    -3.535590    0.885204   -0.082121
  O      3.733505   -0.820421   -2.387318
  O      4.122752   -0.537296    2.416831
  C      4.611393   -1.919557   -2.452177
  H      4.218896   -2.777901   -1.898414
  H      4.691177   -2.180906   -3.505103
  H      5.605429   -1.663635   -2.071314
  C      4.983111   -1.650773    2.472584
  H      5.218240   -1.797897    3.524384
  H      4.497038   -2.550975    2.084317
  H      5.911564   -1.470782    1.920934

----------------------------
CARTESIAN COORDINATES (A.U.)
----------------------------
  NO LB      ZA    FRAG     MASS         X           Y           Z
   0 C     6.0000    0    12.011    4.095278    2.513137    0.074693
   1 C     6.0000    0    12.011    4.772775    1.397024   -2.204339
   2 C     6.0000    0    12.011    6.500611   -0.579594   -2.219262
   3 C     6.0000    0    12.011    7.558211   -1.448957    0.027341
   4 C     6.0000    0    12.011    6.879066   -0.299401    2.297493
   5 C     6.0000    0    12.011    5.167774    1.691263    2.328018
   6 H     1.0000    0     1.008    4.021035    2.055665   -3.986706
   7 H     1.0000    0     1.008    8.881737   -2.998810    0.012833
   8 H     1.0000    0     1.008    4.622971    2.496277    4.126253
   9 C     6.0000    0    12.011    2.232849    4.575573    0.129444
  10 C     6.0000    0    12.011    2.723203    6.782460    1.464816
  11 C     6.0000    0    12.011   -0.119387    4.398674   -1.146070
  12 C     6.0000    0    12.011    0.999274    8.753994    1.505953
  13 H     1.0000    0     1.008    4.509047    6.964136    2.446145
  14 C     6.0000    0    12.011   -1.851981    6.421741   -1.100021
  15 C     6.0000    0    12.011   -1.288663    8.589297    0.218227
  16 H     1.0000    0     1.008    1.453141   10.457242    2.548585
  17 H     1.0000    0     1.008   -3.642971    6.190535   -2.057812
  18 H     1.0000    0     1.008   -2.621377   10.139371    0.269911
  19 C     6.0000    0    12.011   -0.867235    2.182564   -2.352703
  20 C     6.0000    0    12.011   -1.757194    0.217689   -3.280846
  21 H     1.0000    0     1.008   -1.775024   -0.897223   -4.976703
  22 Au   19.0000*   0   196.966   -3.655261   -1.422690   -0.177517
  23 Cl   17.0000    0    35.453   -0.580518   -4.460721   -0.342362
  24 Cl   17.0000    0    35.453   -5.765626   -3.604307    2.874238
  25 Cl   17.0000    0    35.453   -6.681297    1.672793   -0.155186
  26 O     8.0000    0    15.999    7.055302   -1.550371   -4.511377
  27 O     8.0000    0    15.999    7.790872   -1.015342    4.567149
  28 C     6.0000    0    12.011    8.714270   -3.627437   -4.633943
  29 H     1.0000    0     1.008    7.972558   -5.249472   -3.587483
  30 H     1.0000    0     1.008    8.865040   -4.121315   -6.623685
  31 H     1.0000    0     1.008   10.592726   -3.143815   -3.914216
  32 C     6.0000    0    12.011    9.416715   -3.119509    4.672507
  33 H     1.0000    0     1.008    9.861045   -3.397533    6.660121
  34 H     1.0000    0     1.008    8.498170   -4.820644    3.938788
  35 H     1.0000    0     1.008   11.171237   -2.779375    3.630039
* core charge reduced due to ECP

--------------------------------
INTERNAL COORDINATES (ANGSTROEM)
--------------------------------
 C      0   0   0     0.000000000000     0.00000000     0.00000000
 C      1   0   0     1.389903958295     0.00000000     0.00000000
 C      2   1   0     1.389294710467   119.64473533     0.00000000
 C      3   2   1     1.392202219282   120.56378166   359.96575333
 C      4   3   2     1.393687434210   119.22033046   359.49656985
 C      5   4   3     1.389248601847   120.60258244     0.00000000
 H      2   1   3     1.081355798618   121.66635610   181.44799730
 H      4   3   2     1.078532420624   120.41438384   179.24600506
 H      6   5   4     1.081712028434   118.85360310   177.64071829
 C      1   2   3     1.470815745085   120.34799739   181.15787039
 C     10   1   2     1.389431392231   120.56838289   228.39845891
 C     10   1   2     1.419068050711   121.96783569    48.82446151
 C     11  10   1     1.386057576632   121.17992832   179.16208863
 H     11  10   1     1.082584870721   118.79179508     0.67890171
 C     12  10   1     1.409718675107   120.80829652   181.13583039
 C     15  12  10     1.375189232809   120.07960482   359.15604221
 H     13  11  10     1.083732425714   119.21854256   180.73230792
 H     15  12  10     1.081706538338   118.41416168   181.51441639
 H     16  15  12     1.082103197833   120.25203018   180.50700851
 C     12  10   1     1.392689989298   121.52522623     5.09062146
 C     20  12  10     1.242632623227   173.45883573   125.33579797
 H     21  20  12     1.074018348401   142.48858293   150.00817455
 Au    21  20  12     2.111685817189   102.52397688   324.63554086
 Cl    23  21  20     2.289011313762    85.46735564   248.89057554
 Cl    23  21  20     2.277694466572   173.19147658   188.79250309
 Cl    23  21  20     2.290756958398    92.43908432    69.30476120
 O      3   2   1     1.349545190608   115.77537431   180.11398142
 O      5   4   3     1.348654517343   123.55630187   179.65985994
 C     27   3   2     1.408188189455   118.30112959   182.61883479
 H     29  27   3     1.094285966973   111.42760302    60.18925580
 H     29  27   3     1.087806024957   106.13078766   178.87073662
 H     29  27   3     1.094833441282   111.56433397   297.52508868
 C     28   5   4     1.408246084823   118.42126416   356.61204559
 H     33  28   5     1.087756571121   106.09832357   181.99727033
 H     33  28   5     1.094249453014   111.40977632   300.66164648
 H     33  28   5     1.094869606752   111.60158288    63.35416218

---------------------------
INTERNAL COORDINATES (A.U.)
---------------------------
 C      0   0   0     0.000000000000     0.00000000     0.00000000
 C      1   0   0     2.626537833631     0.00000000     0.00000000
 C      2   1   0     2.625386522088   119.64473533     0.00000000
 C      3   2   1     2.630880917481   120.56378166   359.96575333
 C      4   3   2     2.633687566944   119.22033046   359.49656985
 C      5   4   3     2.625299389424   120.60258244     0.00000000
 H      2   1   3     2.043466312715   121.66635610   181.44799730
 H      4   3   2     2.038130901535   120.41438384   179.24600506
 H      6   5   4     2.044139489509   118.85360310   177.64071829
 C      1   2   3     2.779438951670   120.34799739   181.15787039
 C     10   1   2     2.625644813189   120.56838289   228.39845891
 C     10   1   2     2.681649981242   121.96783569    48.82446151
 C     11  10   1     2.619269225680   121.17992832   179.16208863
 H     11  10   1     2.045788922389   118.79179508     0.67890171
 C     12  10   1     2.663982221827   120.80829652   181.13583039
 C     15  12  10     2.598731032327   120.07960482   359.15604221
 H     13  11  10     2.047957487051   119.21854256   180.73230792
 H     15  12  10     2.044129114731   118.41416168   181.51441639
 H     16  15  12     2.044878692544   120.25203018   180.50700851
 C     12  10   1     2.631802669226   121.52522623     5.09062146
 C     20  12  10     2.348235342976   173.45883573   125.33579797
 H     21  20  12     2.029600541284   142.48858293   150.00817455
 Au    21  20  12     3.990507875373   102.52397688   324.63554086
 Cl    23  21  20     4.325604500457    85.46735564   248.89057554
 Cl    23  21  20     4.304218758569   173.19147658   188.79250309
 Cl    23  21  20     4.328903290748    92.43908432    69.30476120
 O      3   2   1     2.550270815600   115.77537431   180.11398142
 O      5   4   3     2.548587687054   123.55630187   179.65985994
 C     27   3   2     2.661090023093   118.30112959   182.61883479
 H     29  27   3     2.067900789772   111.42760302    60.18925580
 H     29  27   3     2.055655473998   106.13078766   178.87073662
 H     29  27   3     2.068935366281   111.56433397   297.52508868
 C     28   5   4     2.661199429482   118.42126416   356.61204559
 H     33  28   5     2.055562019792   106.09832357   181.99727033
 H     33  28   5     2.067831788390   111.40977632   300.66164648
 H     33  28   5     2.069003709116   111.60158288    63.35416218

---------------------
BASIS SET INFORMATION
---------------------
There are 5 groups of distinct atoms

 Group   1 Type C   : 12s6p3d1f contracted to 6s3p3d1f pattern {621111/411/111/1}
 Group   2 Type H   : 5s3p1d contracted to 3s3p1d pattern {311/111/1}
 Group   3 Type Au  : 8s8p6d2f1g contracted to 6s5p3d2f1g pattern {311111/41111/411/11/1}
 Group   4 Type Cl  : 15s10p4d1f contracted to 6s6p4d1f pattern {732111/511111/1111/1}
 Group   5 Type O   : 12s7p3d1f contracted to 6s4p3d1f pattern {621111/4111/111/1}

Atom   0C    basis set group =>   1
Atom   1C    basis set group =>   1
Atom   2C    basis set group =>   1
Atom   3C    basis set group =>   1
Atom   4C    basis set group =>   1
Atom   5C    basis set group =>   1
Atom   6H    basis set group =>   2
Atom   7H    basis set group =>   2
Atom   8H    basis set group =>   2
Atom   9C    basis set group =>   1
Atom  10C    basis set group =>   1
Atom  11C    basis set group =>   1
Atom  12C    basis set group =>   1
Atom  13H    basis set group =>   2
Atom  14C    basis set group =>   1
Atom  15C    basis set group =>   1
Atom  16H    basis set group =>   2
Atom  17H    basis set group =>   2
Atom  18H    basis set group =>   2
Atom  19C    basis set group =>   1
Atom  20C    basis set group =>   1
Atom  21H    basis set group =>   2
Atom  22Au   basis set group =>   3
Atom  23Cl   basis set group =>   4
Atom  24Cl   basis set group =>   4
Atom  25Cl   basis set group =>   4
Atom  26O    basis set group =>   5
Atom  27O    basis set group =>   5
Atom  28C    basis set group =>   1
Atom  29H    basis set group =>   2
Atom  30H    basis set group =>   2
Atom  31H    basis set group =>   2
Atom  32C    basis set group =>   1
Atom  33H    basis set group =>   2
Atom  34H    basis set group =>   2
Atom  35H    basis set group =>   2
---------------------------------
AUXILIARY/J BASIS SET INFORMATION
---------------------------------
There are 5 groups of distinct atoms

 Group   1 Type C   : 12s5p4d2f1g contracted to 6s4p3d1f1g pattern {711111/2111/211/2/1}
 Group   2 Type H   : 5s2p1d contracted to 3s1p1d pattern {311/2/1}
 Group   3 Type Au  : 11s5p5d3f3g contracted to 8s5p5d2f3g pattern {41111111/11111/11111/21/111}
 Group   4 Type Cl  : 14s5p5d2f1g contracted to 8s4p3d1f1g pattern {71111111/2111/311/2/1}
 Group   5 Type O   : 12s5p4d2f1g contracted to 6s4p3d1f1g pattern {711111/2111/211/2/1}

Atom   0C    basis set group =>   1
Atom   1C    basis set group =>   1
Atom   2C    basis set group =>   1
Atom   3C    basis set group =>   1
Atom   4C    basis set group =>   1
Atom   5C    basis set group =>   1
Atom   6H    basis set group =>   2
Atom   7H    basis set group =>   2
Atom   8H    basis set group =>   2
Atom   9C    basis set group =>   1
Atom  10C    basis set group =>   1
Atom  11C    basis set group =>   1
Atom  12C    basis set group =>   1
Atom  13H    basis set group =>   2
Atom  14C    basis set group =>   1
Atom  15C    basis set group =>   1
Atom  16H    basis set group =>   2
Atom  17H    basis set group =>   2
Atom  18H    basis set group =>   2
Atom  19C    basis set group =>   1
Atom  20C    basis set group =>   1
Atom  21H    basis set group =>   2
Atom  22Au   basis set group =>   3
Atom  23Cl   basis set group =>   4
Atom  24Cl   basis set group =>   4
Atom  25Cl   basis set group =>   4
Atom  26O    basis set group =>   5
Atom  27O    basis set group =>   5
Atom  28C    basis set group =>   1
Atom  29H    basis set group =>   2
Atom  30H    basis set group =>   2
Atom  31H    basis set group =>   2
Atom  32C    basis set group =>   1
Atom  33H    basis set group =>   2
Atom  34H    basis set group =>   2
Atom  35H    basis set group =>   2
-------------------------
ECP PARAMETER INFORMATION
-------------------------

 Group 1, Type Au ECP Def2-ECP (replacing 60 core electrons, lmax=3)

Atom  22Au   ECP group =>   1



           ************************************************************
           *        Program running with 24 parallel MPI-processes    *
           *              working on a common directory               *
           ************************************************************
------------------------------------------------------------------------------
                           ORCA GTO INTEGRAL CALCULATION
                           -- RI-GTO INTEGRALS CHOSEN --
------------------------------------------------------------------------------

                         BASIS SET STATISTICS AND STARTUP INFO

Gaussian basis set:
 # of primitive gaussian shells          ...  639
 # of primitive gaussian functions       ... 1509
 # of contracted shells                  ...  402
 # of contracted basis functions         ... 1122
 Highest angular momentum                ...    4
 Maximum contraction depth               ...    7
Auxiliary gaussian basis set:
 # of primitive gaussian shells          ...  652
 # of primitive gaussian functions       ... 1814
 # of contracted shells                  ...  414
 # of contracted aux-basis functions     ... 1278
 Highest angular momentum                ...    4
 Maximum contraction depth               ...    7
Ratio of auxiliary to basis functions    ...  1.14
Integral package used                  ... LIBINT
 One Electron integrals                  
   ECP integrals                         ... done
 Ordering auxiliary basis shells         ... done
 Integral threshhold             Thresh  ...  1.000e-10
 Primitive cut-off               TCut    ...  1.000e-11
 Pre-screening matrix                    ... done
 Shell pair data                         ... 
 Ordering of the shell pairs             ... done (   0.012 sec) 61000 of 81003 pairs
 Determination of significant pairs      ... done (   0.000 sec)
 Creation of shell pair data             ... done (   0.006 sec)
 Storage of shell pair data              ... done (   0.012 sec)
 Shell pair data done in (   0.030 sec)
 Computing two index integrals           ... done
 Cholesky decomposition of the V-matrix  ... done


Timings:
 Total evaluation time                   ...   4.129 sec (  0.069 min)
 One electron matrix time                ...   3.302 sec (  0.055 min) = 80.0%
 Schwartz matrix evaluation time         ...   0.661 sec (  0.011 min) = 16.0%
 Two index repulsion integral time       ...   0.038 sec (  0.001 min) =  0.9%
 Cholesky decomposition of V             ...   0.073 sec (  0.001 min) =  1.8%
 Three index repulsion integral time     ...   0.000 sec (  0.000 min) =  0.0%



           ************************************************************
           *        Program running with 24 parallel MPI-processes    *
           *              working on a common directory               *
           ************************************************************
-------------------------------------------------------------------------------
                                 ORCA SCF
-------------------------------------------------------------------------------

------------
SCF SETTINGS
------------
Hamiltonian:
 Density Functional     Method          .... DFT(GTOs)
 Exchange Functional    Exchange        .... TPSS
 Correlation Functional Correlation     .... TPSS
 LDA part of GGA corr.  LDAOpt          .... PW91-LDA
 Gradients option       PostSCFGGA      .... off
   Density functional embedding theory  .... OFF
   NL short-range parameter             ....  5.000000
 RI-approximation to the Coulomb term is turned on
   Number of auxiliary basis functions  .... 1278


General Settings:
 Integral files         IntName         .... TMB26_C1
 Hartree-Fock type      HFTyp           .... RHF
 Total Charge           Charge          ....    0
 Multiplicity           Mult            ....    1
 Number of Electrons    NEL             ....  196
 Basis Dimension        Dim             .... 1122
 Nuclear Repulsion      ENuc            ....   2417.5368279210 Eh

Convergence Acceleration:
 DIIS                   CNVDIIS         .... on
   Start iteration      DIISMaxIt       ....    12
   Startup error        DIISStart       ....  0.200000
   # of expansion vecs  DIISMaxEq       ....     5
   Bias factor          DIISBfac        ....   1.050
   Max. coefficient     DIISMaxC        ....  10.000
 Newton-Raphson         CNVNR           .... off
 SOSCF                  CNVSOSCF        .... off
 Level Shifting         CNVShift        .... on
   Level shift para.    LevelShift      ....    0.2500
   Turn off err/grad.   ShiftErr        ....    0.0010
 Zerner damping         CNVZerner       .... off
 Static damping         CNVDamp         .... on
   Fraction old density DampFac         ....    0.7000
   Max. Damping (<1)    DampMax         ....    0.9800
   Min. Damping (>=0)   DampMin         ....    0.0000
   Turn off err/grad.   DampErr         ....    0.1000
 Fernandez-Rico         CNVRico         .... off

SCF Procedure:
 Maximum # iterations   MaxIter         ....   125
 SCF integral mode      SCFMode         .... Direct
   Integral package                     .... LIBINT
 Reset frequency        DirectResetFreq ....    20
 Integral Threshold     Thresh          ....  1.000e-10 Eh
 Primitive CutOff       TCut            ....  1.000e-11 Eh

Convergence Tolerance:
 Convergence Check Mode ConvCheckMode   .... Total+1el-Energy
 Convergence forced     ConvForced      .... 0
 Energy Change          TolE            ....  1.000e-06 Eh
 1-El. energy change                    ....  1.000e-03 Eh
 DIIS Error             TolErr          ....  1.000e-06


Diagonalization of the overlap matrix:
Smallest eigenvalue                        ... 1.899e-07
Time for diagonalization                   ...    0.199 sec
Threshold for overlap eigenvalues          ... 1.000e-08
Number of eigenvalues below threshold      ... 0
Time for construction of square roots      ...    0.147 sec
Total time needed                          ...    0.351 sec

-------------------
DFT GRID GENERATION
-------------------

General Integration Accuracy     IntAcc      ...  4.670
Radial Grid Type                 RadialGrid  ... Gauss-Chebyshev
Angular Grid (max. acc.)         AngularGrid ... Lebedev-302
Angular grid pruning method      GridPruning ... 3 (G Style)
Weight generation scheme         WeightScheme... Becke
Basis function cutoff            BFCut       ...    1.0000e-10
Integration weight cutoff        WCut        ...    1.0000e-14
Grids for H and He will be reduced by one unit

# of grid points (after initial pruning)     ... 191198 (   0.0 sec)
# of grid points (after weights+screening)   ... 168278 (   0.2 sec)
nearest neighbour list constructed           ...    0.0 sec
Grid point re-assignment to atoms done       ...    0.0 sec
Grid point division into batches done        ...    0.6 sec
Reduced shell lists constructed in    0.8 sec

Total number of grid points                  ...   168278
Total number of batches                      ...     2649
Average number of points per batch           ...       63
Average number of grid points per atom       ...     4674
Average number of shells per batch           ...   236.20 (58.76%)
Average number of basis functions per batch  ...   655.54 (58.43%)
Average number of large shells per batch     ...   181.55 (76.87%)
Average number of large basis fcns per batch ...   499.80 (76.24%)
Maximum spatial batch extension              ...   6.19,  5.08,  3.26 au
Average spatial batch extension              ...   0.05,  0.05,  0.05 au

Time for grid setup =    1.025 sec

------------------------------
INITIAL GUESS: MODEL POTENTIAL
------------------------------
Loading Hartree-Fock densities                     ... done
  calling /sw/apps/orca/orca_4_2_0_linux_x86-64_openmpi314/orca TMB26_C1_atom79.inp > TMB26_C1_atom79.out in order to generate an atomic fitting density for atom 22 (Au with ECP) on-the-fly... 
    atom 22 (Au), assumed electronic state with S=2: 1s2 2s2 2p6 3s2 3p6 4s2 3d10 4p6 5s2 4d10 5p6 6s1 4f14 5d10           ... done
Calculating cut-offs                               ... done
Setting up the integral package                    ... done
Initializing the effective Hamiltonian             ... done
Starting the Coulomb interaction                   ... done (   0.2 sec)
Reading the grid                                   ... done
Mapping shells                                     ... done
Starting the XC term evaluation                    ... done (   0.6 sec)
  promolecular density results
     # of electrons  =    255.994498100
     EX              =   -550.319160176
     EC              =    -11.069265938
     EX+EC           =   -561.388426114
Transforming the Hamiltonian                       ... done (   0.1 sec)
Diagonalizing the Hamiltonian                      ... done (   0.2 sec)
Back transforming the eigenvectors                 ... done (   0.1 sec)
Now organizing SCF variables                       ... done
                      ------------------
                      INITIAL GUESS DONE (   3.2 sec)
                      ------------------
--------------
SCF ITERATIONS
--------------
ITER       Energy         Delta-E        Max-DP      RMS-DP      [F,P]     Damp
               ***  Starting incremental Fock matrix formation  ***
  0  -2285.0160359947   0.000000000000 3.90605975  0.00930029  0.5631975 0.7000
  1  -2285.1928567056  -0.176820710875 2.97120799  0.00687176  0.3974380 0.7000
  2  -2285.2683493639  -0.075492658291 2.06422570  0.00467790  0.2782031 0.7000
                               ***Turning on DIIS***
  3  -2285.3109729304  -0.042623566495 1.34871668  0.00307983  0.1934709 0.7000
  4  -2285.3408581213  -0.029885190912 0.75402383  0.00196699  0.1340881 0.7000
  5  -2285.3620330628  -0.021174941473 2.05379988  0.00535904  0.0935583 0.0000
  6  -2285.4111516997  -0.049118636924 0.13199137  0.00053058  0.0017421 0.0000
  7  -2285.4112058878  -0.000054188113 0.24615366  0.00088826  0.0008240 0.0000
  8  -2285.4112063071  -0.000000419294 0.08094708  0.00031239  0.0012417 0.0000
  9  -2285.4112143490  -0.000008041895 0.65818424  0.00182448  0.0002640 0.0000
 10  -2285.4112141804   0.000000168599 0.16790384  0.00066144  0.0001212 0.0000
 11  -2285.4112140619   0.000000118476 0.14984207  0.00064702  0.0000665 0.0000
 12  -2285.4112142347  -0.000000172792 0.15541724  0.00060781  0.0000194 0.0000
                 **** Energy Check signals convergence ****

               *****************************************************
               *                     SUCCESS                       *
               *           SCF CONVERGED AFTER  13 CYCLES          *
               *****************************************************


----------------
TOTAL SCF ENERGY
----------------

Total Energy       :        -2285.41121422 Eh          -62189.20078 eV

Components:
Nuclear Repulsion  :         2417.53682792 Eh           65784.52151 eV
Electronic Energy  :        -4702.94804214 Eh         -127973.72228 eV
One Electron Energy:        -8001.42501080 Eh         -217729.84372 eV
Two Electron Energy:         3298.47696866 Eh           89756.12143 eV

Virial components:
Potential Energy   :        -4475.30393162 Eh         -121779.21111 eV
Kinetic Energy     :         2189.89271740 Eh           59590.01034 eV
Virial Ratio       :            2.04361789


DFT components:
N(Alpha)           :       97.999947257431 electrons
N(Beta)            :       97.999947257431 electrons
N(Total)           :      195.999894514861 electrons
E(X)               :     -200.159486735842 Eh       
E(C)               :       -7.065584889443 Eh       
E(XC)              :     -207.225071625285 Eh       
DFET-embed. en.    :        0.000000000000 Eh       

---------------
SCF CONVERGENCE
---------------

  Last Energy change         ...    1.5732e-08  Tolerance :   1.0000e-06
  Last MAX-Density change    ...    3.6615e-01  Tolerance :   1.0000e-05
  Last RMS-Density change    ...    9.4639e-04  Tolerance :   1.0000e-06
  Last DIIS Error            ...    7.6607e-06  Tolerance :   1.0000e-06

             **** THE GBW FILE WAS UPDATED (TMB26_C1.gbw) ****
             **** DENSITY FILE WAS UPDATED (TMB26_C1.scfp) ****
             **** ENERGY FILE WAS UPDATED (TMB26_C1.en.tmp) ****
             **** THE GBW FILE WAS UPDATED (TMB26_C1.gbw) ****
             **** DENSITY FILE WAS UPDATED (TMB26_C1.scfp) ****
----------------
ORBITAL ENERGIES
----------------

  NO   OCC          E(Eh)            E(eV) 
   0   2.0000    -100.953633     -2747.0880 
   1   2.0000    -100.952787     -2747.0650 
   2   2.0000    -100.948669     -2746.9529 
   3   2.0000     -18.931099      -515.1414 
   4   2.0000     -18.930393      -515.1222 
   5   2.0000     -10.065174      -273.8873 
   6   2.0000     -10.062237      -273.8074 
   7   2.0000     -10.062182      -273.8059 
   8   2.0000     -10.054002      -273.5833 
   9   2.0000     -10.053729      -273.5759 
  10   2.0000     -10.053201      -273.5615 
  11   2.0000     -10.047902      -273.4173 
  12   2.0000     -10.042446      -273.2688 
  13   2.0000     -10.036791      -273.1150 
  14   2.0000     -10.035953      -273.0922 
  15   2.0000     -10.026461      -272.8339 
  16   2.0000     -10.025946      -272.8199 
  17   2.0000     -10.020878      -272.6819 
  18   2.0000     -10.002315      -272.1768 
  19   2.0000      -9.997021      -272.0328 
  20   2.0000      -9.995082      -271.9800 
  21   2.0000      -9.203037      -250.4274 
  22   2.0000      -9.202117      -250.4023 
  23   2.0000      -9.197939      -250.2887 
  24   2.0000      -6.981157      -189.9669 
  25   2.0000      -6.980377      -189.9457 
  26   2.0000      -6.976727      -189.8464 
  27   2.0000      -6.973015      -189.7454 
  28   2.0000      -6.972603      -189.7342 
  29   2.0000      -6.972039      -189.7188 
  30   2.0000      -6.971616      -189.7073 
  31   2.0000      -6.967774      -189.6028 
  32   2.0000      -6.966996      -189.5816 
  33   2.0000      -4.121317      -112.1467 
  34   2.0000      -2.334878       -63.5353 
  35   2.0000      -2.333262       -63.4913 
  36   2.0000      -2.307868       -62.8003 
  37   2.0000      -1.022705       -27.8292 
  38   2.0000      -1.020828       -27.7781 
  39   2.0000      -0.856556       -23.3081 
  40   2.0000      -0.814846       -22.1731 
  41   2.0000      -0.784720       -21.3533 
  42   2.0000      -0.755463       -20.5572 
  43   2.0000      -0.733303       -19.9542 
  44   2.0000      -0.727398       -19.7935 
  45   2.0000      -0.722792       -19.6682 
  46   2.0000      -0.710129       -19.3236 
  47   2.0000      -0.708625       -19.2827 
  48   2.0000      -0.700439       -19.0599 
  49   2.0000      -0.682698       -18.5772 
  50   2.0000      -0.648977       -17.6595 
  51   2.0000      -0.627357       -17.0713 
  52   2.0000      -0.607741       -16.5375 
  53   2.0000      -0.569110       -15.4863 
  54   2.0000      -0.563041       -15.3211 
  55   2.0000      -0.538417       -14.6511 
  56   2.0000      -0.518522       -14.1097 
  57   2.0000      -0.499286       -13.5863 
  58   2.0000      -0.484459       -13.1828 
  59   2.0000      -0.470281       -12.7970 
  60   2.0000      -0.466324       -12.6893 
  61   2.0000      -0.461103       -12.5472 
  62   2.0000      -0.450654       -12.2629 
  63   2.0000      -0.446051       -12.1377 
  64   2.0000      -0.440445       -11.9851 
  65   2.0000      -0.433962       -11.8087 
  66   2.0000      -0.427968       -11.6456 
  67   2.0000      -0.423486       -11.5236 
  68   2.0000      -0.407415       -11.0863 
  69   2.0000      -0.405025       -11.0213 
  70   2.0000      -0.394959       -10.7474 
  71   2.0000      -0.394319       -10.7300 
  72   2.0000      -0.380106       -10.3432 
  73   2.0000      -0.372173       -10.1273 
  74   2.0000      -0.367310        -9.9950 
  75   2.0000      -0.363069        -9.8796 
  76   2.0000      -0.358978        -9.7683 
  77   2.0000      -0.352503        -9.5921 
  78   2.0000      -0.350199        -9.5294 
  79   2.0000      -0.343686        -9.3522 
  80   2.0000      -0.332208        -9.0398 
  81   2.0000      -0.326975        -8.8974 
  82   2.0000      -0.317263        -8.6332 
  83   2.0000      -0.307492        -8.3673 
  84   2.0000      -0.305523        -8.3137 
  85   2.0000      -0.302223        -8.2239 
  86   2.0000      -0.296403        -8.0655 
  87   2.0000      -0.282809        -7.6956 
  88   2.0000      -0.276722        -7.5300 
  89   2.0000      -0.265699        -7.2300 
  90   2.0000      -0.262904        -7.1540 
  91   2.0000      -0.248036        -6.7494 
  92   2.0000      -0.236301        -6.4301 
  93   2.0000      -0.234917        -6.3924 
  94   2.0000      -0.230149        -6.2627 
  95   2.0000      -0.229068        -6.2333 
  96   2.0000      -0.226683        -6.1684 
  97   2.0000      -0.203124        -5.5273 
  98   0.0000      -0.164826        -4.4851 
  99   0.0000      -0.108305        -2.9471 
 100   0.0000      -0.080647        -2.1945 
 101   0.0000      -0.047258        -1.2860 
 102   0.0000      -0.037686        -1.0255 
 103   0.0000      -0.031516        -0.8576 
 104   0.0000      -0.024814        -0.6752 
 105   0.0000      -0.020248        -0.5510 
 106   0.0000      -0.014904        -0.4056 
 107   0.0000      -0.004147        -0.1128 
 108   0.0000       0.003585         0.0976 
 109   0.0000       0.005286         0.1438 
 110   0.0000       0.012748         0.3469 
 111   0.0000       0.015502         0.4218 
 112   0.0000       0.019133         0.5206 
 113   0.0000       0.024527         0.6674 
 114   0.0000       0.027308         0.7431 
 115   0.0000       0.032417         0.8821 
 116   0.0000       0.036838         1.0024 
 117   0.0000       0.037607         1.0233 
 118   0.0000       0.045153         1.2287 
 119   0.0000       0.048267         1.3134 
 120   0.0000       0.053310         1.4506 
 121   0.0000       0.054818         1.4917 
 122   0.0000       0.058473         1.5911 
 123   0.0000       0.060398         1.6435 
 124   0.0000       0.064248         1.7483 
 125   0.0000       0.069928         1.9028 
 126   0.0000       0.070344         1.9141 
 127   0.0000       0.072642         1.9767 
 128   0.0000       0.079339         2.1589 
 129   0.0000       0.082013         2.2317 
 130   0.0000       0.086362         2.3500 
 131   0.0000       0.087288         2.3752 
 132   0.0000       0.092095         2.5060 
 133   0.0000       0.092370         2.5135 
 134   0.0000       0.098656         2.6846 
 135   0.0000       0.099500         2.7075 
 136   0.0000       0.102237         2.7820 
 137   0.0000       0.105448         2.8694 
 138   0.0000       0.109185         2.9711 
 139   0.0000       0.112424         3.0592 
 140   0.0000       0.114115         3.1052 
 141   0.0000       0.116840         3.1794 
 142   0.0000       0.118926         3.2361 
 143   0.0000       0.121629         3.3097 
 144   0.0000       0.124423         3.3857 
 145   0.0000       0.127106         3.4587 
 146   0.0000       0.131200         3.5701 
 147   0.0000       0.132128         3.5954 
 148   0.0000       0.134937         3.6718 
 149   0.0000       0.137390         3.7386 
 150   0.0000       0.140350         3.8191 
 151   0.0000       0.147478         4.0131 
 152   0.0000       0.148771         4.0483 
 153   0.0000       0.152020         4.1367 
 154   0.0000       0.156087         4.2473 
 155   0.0000       0.157642         4.2897 
 156   0.0000       0.159742         4.3468 
 157   0.0000       0.162816         4.4305 
 158   0.0000       0.168754         4.5920 
 159   0.0000       0.170594         4.6421 
 160   0.0000       0.172117         4.6835 
 161   0.0000       0.176654         4.8070 
 162   0.0000       0.178290         4.8515 
 163   0.0000       0.182945         4.9782 
 164   0.0000       0.185772         5.0551 
 165   0.0000       0.189705         5.1621 
 166   0.0000       0.191198         5.2028 
 167   0.0000       0.192793         5.2462 
 168   0.0000       0.193862         5.2752 
 169   0.0000       0.201395         5.4802 
 170   0.0000       0.203502         5.5376 
 171   0.0000       0.206658         5.6234 
 172   0.0000       0.209032         5.6881 
 173   0.0000       0.210520         5.7285 
 174   0.0000       0.213920         5.8211 
 175   0.0000       0.216812         5.8998 
 176   0.0000       0.218369         5.9421 
 177   0.0000       0.220289         5.9944 
 178   0.0000       0.225155         6.1268 
 179   0.0000       0.225796         6.1442 
 180   0.0000       0.228084         6.2065 
 181   0.0000       0.230348         6.2681 
 182   0.0000       0.233126         6.3437 
 183   0.0000       0.233864         6.3638 
 184   0.0000       0.234901         6.3920 
 185   0.0000       0.235749         6.4150 
 186   0.0000       0.238976         6.5029 
 187   0.0000       0.242301         6.5933 
 188   0.0000       0.243483         6.6255 
 189   0.0000       0.247178         6.7261 
 190   0.0000       0.247783         6.7425 
 191   0.0000       0.249946         6.8014 
 192   0.0000       0.253591         6.9006 
 193   0.0000       0.255902         6.9634 
 194   0.0000       0.257759         7.0140 
 195   0.0000       0.258218         7.0265 
 196   0.0000       0.260752         7.0954 
 197   0.0000       0.262962         7.1556 
 198   0.0000       0.264791         7.2053 
 199   0.0000       0.267012         7.2658 
 200   0.0000       0.270618         7.3639 
 201   0.0000       0.270789         7.3685 
 202   0.0000       0.272562         7.4168 
 203   0.0000       0.274414         7.4672 
 204   0.0000       0.275916         7.5081 
 205   0.0000       0.278134         7.5684 
 206   0.0000       0.278975         7.5913 
 207   0.0000       0.282356         7.6833 
 208   0.0000       0.285366         7.7652 
 209   0.0000       0.285855         7.7785 
 210   0.0000       0.288744         7.8571 
 211   0.0000       0.289610         7.8807 
 212   0.0000       0.291934         7.9439 
 213   0.0000       0.294680         8.0187 
 214   0.0000       0.297378         8.0921 
 215   0.0000       0.300439         8.1754 
 216   0.0000       0.301597         8.2069 
 217   0.0000       0.303758         8.2657 
 218   0.0000       0.305062         8.3012 
 219   0.0000       0.309025         8.4090 
 220   0.0000       0.310452         8.4478 
 221   0.0000       0.311293         8.4707 
 222   0.0000       0.313138         8.5209 
 223   0.0000       0.316162         8.6032 
 224   0.0000       0.318068         8.6551 
 225   0.0000       0.318321         8.6620 
 226   0.0000       0.319608         8.6970 
 227   0.0000       0.324245         8.8232 
 228   0.0000       0.327856         8.9214 
 229   0.0000       0.330069         8.9816 
 230   0.0000       0.334702         9.1077 
 231   0.0000       0.335480         9.1289 
 232   0.0000       0.338038         9.1985 
 233   0.0000       0.340443         9.2639 
 234   0.0000       0.344681         9.3792 
 235   0.0000       0.346468         9.4279 
 236   0.0000       0.349144         9.5007 
 237   0.0000       0.349582         9.5126 
 238   0.0000       0.350701         9.5431 
 239   0.0000       0.352451         9.5907 
 240   0.0000       0.357084         9.7168 
 241   0.0000       0.360680         9.8146 
 242   0.0000       0.363148         9.8817 
 243   0.0000       0.365342         9.9415 
 244   0.0000       0.366575         9.9750 
 245   0.0000       0.368023        10.0144 
 246   0.0000       0.374069        10.1789 
 247   0.0000       0.376370        10.2415 
 248   0.0000       0.378509        10.2997 
 249   0.0000       0.382131        10.3983 
 250   0.0000       0.385585        10.4923 
 251   0.0000       0.385773        10.4974 
 252   0.0000       0.389061        10.5869 
 253   0.0000       0.394319        10.7300 
 254   0.0000       0.395029        10.7493 
 255   0.0000       0.399958        10.8834 
 256   0.0000       0.404036        10.9944 
 257   0.0000       0.404376        11.0036 
 258   0.0000       0.410569        11.1721 
 259   0.0000       0.413435        11.2501 
 260   0.0000       0.415248        11.2995 
 261   0.0000       0.418204        11.3799 
 262   0.0000       0.419867        11.4252 
 263   0.0000       0.425808        11.5868 
 264   0.0000       0.431087        11.7305 
 265   0.0000       0.433125        11.7859 
 266   0.0000       0.437593        11.9075 
 267   0.0000       0.438835        11.9413 
 268   0.0000       0.444311        12.0903 
 269   0.0000       0.446627        12.1533 
 270   0.0000       0.448502        12.2044 
 271   0.0000       0.454003        12.3540 
 272   0.0000       0.456163        12.4128 
 273   0.0000       0.460733        12.5372 
 274   0.0000       0.462716        12.5911 
 275   0.0000       0.464560        12.6413 
 276   0.0000       0.468792        12.7565 
 277   0.0000       0.471761        12.8373 
 278   0.0000       0.476311        12.9611 
 279   0.0000       0.477259        12.9869 
 280   0.0000       0.483829        13.1657 
 281   0.0000       0.484200        13.1757 
 282   0.0000       0.486551        13.2397 
 283   0.0000       0.488647        13.2968 
 284   0.0000       0.496164        13.5013 
 285   0.0000       0.496441        13.5089 
 286   0.0000       0.498473        13.5641 
 287   0.0000       0.505453        13.7541 
 288   0.0000       0.509679        13.8691 
 289   0.0000       0.512931        13.9576 
 290   0.0000       0.515537        14.0285 
 291   0.0000       0.519065        14.1245 
 292   0.0000       0.521869        14.2008 
 293   0.0000       0.523810        14.2536 
 294   0.0000       0.528444        14.3797 
 295   0.0000       0.530579        14.4378 
 296   0.0000       0.533503        14.5174 
 297   0.0000       0.538058        14.6413 
 298   0.0000       0.540740        14.7143 
 299   0.0000       0.542352        14.7581 
 300   0.0000       0.546391        14.8681 
 301   0.0000       0.549573        14.9546 
 302   0.0000       0.553119        15.0511 
 303   0.0000       0.553730        15.0678 
 304   0.0000       0.558031        15.1848 
 305   0.0000       0.561015        15.2660 
 306   0.0000       0.563792        15.3416 
 307   0.0000       0.567651        15.4466 
 308   0.0000       0.569713        15.5027 
 309   0.0000       0.571451        15.5500 
 310   0.0000       0.574324        15.6281 
 311   0.0000       0.576949        15.6996 
 312   0.0000       0.581228        15.8160 
 313   0.0000       0.581493        15.8232 
 314   0.0000       0.584748        15.9118 
 315   0.0000       0.588128        16.0038 
 316   0.0000       0.592060        16.1108 
 317   0.0000       0.594632        16.1808 
 318   0.0000       0.598096        16.2750 
 319   0.0000       0.599662        16.3176 
 320   0.0000       0.604139        16.4395 
 321   0.0000       0.605609        16.4795 
 322   0.0000       0.606882        16.5141 
 323   0.0000       0.608500        16.5581 
 324   0.0000       0.610921        16.6240 
 325   0.0000       0.613657        16.6985 
 326   0.0000       0.614671        16.7260 
 327   0.0000       0.617566        16.8048 
 328   0.0000       0.621546        16.9131 
 329   0.0000       0.624553        16.9950 
 330   0.0000       0.627777        17.0827 
 331   0.0000       0.628413        17.1000 
 332   0.0000       0.629920        17.1410 
 333   0.0000       0.631937        17.1959 
 334   0.0000       0.636441        17.3184 
 335   0.0000       0.637679        17.3521 
 336   0.0000       0.639643        17.4056 
 337   0.0000       0.641889        17.4667 
 338   0.0000       0.642474        17.4826 
 339   0.0000       0.646428        17.5902 
 340   0.0000       0.649074        17.6622 
 341   0.0000       0.650633        17.7046 
 342   0.0000       0.653944        17.7947 
 343   0.0000       0.655605        17.8399 
 344   0.0000       0.657307        17.8862 
 345   0.0000       0.658679        17.9236 
 346   0.0000       0.659224        17.9384 
 347   0.0000       0.664856        18.0916 
 348   0.0000       0.666945        18.1485 
 349   0.0000       0.671078        18.2610 
 350   0.0000       0.671863        18.2823 
 351   0.0000       0.676426        18.4065 
 352   0.0000       0.677379        18.4324 
 353   0.0000       0.680916        18.5287 
 354   0.0000       0.682581        18.5740 
 355   0.0000       0.683923        18.6105 
 356   0.0000       0.689119        18.7519 
 357   0.0000       0.690602        18.7922 
 358   0.0000       0.691706        18.8223 
 359   0.0000       0.693838        18.8803 
 360   0.0000       0.696904        18.9637 
 361   0.0000       0.699316        19.0294 
 362   0.0000       0.701861        19.0986 
 363   0.0000       0.705742        19.2042 
 364   0.0000       0.707198        19.2438 
 365   0.0000       0.710247        19.3268 
 366   0.0000       0.712967        19.4008 
 367   0.0000       0.714580        19.4447 
 368   0.0000       0.716048        19.4847 
 369   0.0000       0.718380        19.5481 
 370   0.0000       0.722296        19.6547 
 371   0.0000       0.726252        19.7623 
 372   0.0000       0.730489        19.8776 
 373   0.0000       0.734580        19.9889 
 374   0.0000       0.735833        20.0230 
 375   0.0000       0.738385        20.0925 
 376   0.0000       0.743753        20.2385 
 377   0.0000       0.745992        20.2995 
 378   0.0000       0.747818        20.3492 
 379   0.0000       0.751637        20.4531 
 380   0.0000       0.755129        20.5481 
 381   0.0000       0.758840        20.6491 
 382   0.0000       0.761810        20.7299 
 383   0.0000       0.767038        20.8722 
 384   0.0000       0.771412        20.9912 
 385   0.0000       0.772458        21.0196 
 386   0.0000       0.775558        21.1040 
 387   0.0000       0.778265        21.1777 
 388   0.0000       0.780059        21.2265 
 389   0.0000       0.786057        21.3897 
 390   0.0000       0.789472        21.4826 
 391   0.0000       0.791595        21.5404 
 392   0.0000       0.795127        21.6365 
 393   0.0000       0.796554        21.6753 
 394   0.0000       0.801414        21.8076 
 395   0.0000       0.804065        21.8797 
 396   0.0000       0.806071        21.9343 
 397   0.0000       0.807650        21.9773 
 398   0.0000       0.809422        22.0255 
 399   0.0000       0.813925        22.1480 
 400   0.0000       0.823178        22.3998 
 401   0.0000       0.825966        22.4757 
 402   0.0000       0.829811        22.5803 
 403   0.0000       0.831701        22.6317 
 404   0.0000       0.834102        22.6971 
 405   0.0000       0.838950        22.8290 
 406   0.0000       0.844147        22.9704 
 407   0.0000       0.848300        23.0834 
 408   0.0000       0.849596        23.1187 
 409   0.0000       0.854043        23.2397 
 410   0.0000       0.859045        23.3758 
 411   0.0000       0.860530        23.4162 
 412   0.0000       0.867346        23.6017 
 413   0.0000       0.868346        23.6289 
 414   0.0000       0.875621        23.8269 
 415   0.0000       0.878703        23.9107 
 416   0.0000       0.884822        24.0772 
 417   0.0000       0.890344        24.2275 
 418   0.0000       0.895656        24.3720 
 419   0.0000       0.899252        24.4699 
 420   0.0000       0.900189        24.4954 
 421   0.0000       0.907019        24.6812 
 422   0.0000       0.909946        24.7609 
 423   0.0000       0.915416        24.9097 
 424   0.0000       0.919475        25.0202 
 425   0.0000       0.922831        25.1115 
 426   0.0000       0.928253        25.2590 
 427   0.0000       0.929772        25.3004 
 428   0.0000       0.936268        25.4772 
 429   0.0000       0.947819        25.7915 
 430   0.0000       0.956254        26.0210 
 431   0.0000       0.959370        26.1058 
 432   0.0000       0.966908        26.3109 
 433   0.0000       0.969032        26.3687 
 434   0.0000       0.971129        26.4258 
 435   0.0000       0.978709        26.6320 
 436   0.0000       0.985699        26.8222 
 437   0.0000       0.990170        26.9439 
 438   0.0000       0.993066        27.0227 
 439   0.0000       0.999734        27.2041 
 440   0.0000       1.002668        27.2840 
 441   0.0000       1.011631        27.5279 
 442   0.0000       1.013847        27.5882 
 443   0.0000       1.019232        27.7347 
 444   0.0000       1.026118        27.9221 
 445   0.0000       1.028673        27.9916 
 446   0.0000       1.031959        28.0810 
 447   0.0000       1.039087        28.2750 
 448   0.0000       1.042899        28.3787 
 449   0.0000       1.048633        28.5348 
 450   0.0000       1.055901        28.7325 
 451   0.0000       1.060842        28.8670 
 452   0.0000       1.065455        28.9925 
 453   0.0000       1.071009        29.1436 
 454   0.0000       1.074421        29.2365 
 455   0.0000       1.078234        29.3402 
 456   0.0000       1.078979        29.3605 
 457   0.0000       1.092463        29.7274 
 458   0.0000       1.095611        29.8131 
 459   0.0000       1.102564        30.0023 
 460   0.0000       1.105953        30.0945 
 461   0.0000       1.110326        30.2135 
 462   0.0000       1.113985        30.3131 
 463   0.0000       1.121596        30.5202 
 464   0.0000       1.128409        30.7056 
 465   0.0000       1.129969        30.7480 
 466   0.0000       1.139452        31.0061 
 467   0.0000       1.142463        31.0880 
 468   0.0000       1.145427        31.1687 
 469   0.0000       1.150047        31.2944 
 470   0.0000       1.155265        31.4364 
 471   0.0000       1.158741        31.5309 
 472   0.0000       1.166360        31.7383 
 473   0.0000       1.167347        31.7651 
 474   0.0000       1.169760        31.8308 
 475   0.0000       1.183213        32.1969 
 476   0.0000       1.187781        32.3212 
 477   0.0000       1.193336        32.4723 
 478   0.0000       1.200136        32.6574 
 479   0.0000       1.201031        32.6817 
 480   0.0000       1.201731        32.7008 
 481   0.0000       1.209559        32.9138 
 482   0.0000       1.215993        33.0889 
 483   0.0000       1.218992        33.1705 
 484   0.0000       1.221776        33.2462 
 485   0.0000       1.228124        33.4190 
 486   0.0000       1.239041        33.7160 
 487   0.0000       1.247482        33.9457 
 488   0.0000       1.250156        34.0185 
 489   0.0000       1.254964        34.1493 
 490   0.0000       1.258180        34.2368 
 491   0.0000       1.263373        34.3781 
 492   0.0000       1.271923        34.6108 
 493   0.0000       1.277088        34.7513 
 494   0.0000       1.285357        34.9763 
 495   0.0000       1.290330        35.1117 
 496   0.0000       1.299554        35.3627 
 497   0.0000       1.302149        35.4333 
 498   0.0000       1.308072        35.5944 
 499   0.0000       1.315163        35.7874 
 500   0.0000       1.321842        35.9692 
 501   0.0000       1.326543        36.0971 
 502   0.0000       1.329930        36.1892 
 503   0.0000       1.334490        36.3133 
 504   0.0000       1.341355        36.5001 
 505   0.0000       1.343424        36.5564 
 506   0.0000       1.350160        36.7397 
 507   0.0000       1.358396        36.9638 
 508   0.0000       1.361156        37.0389 
 509   0.0000       1.363759        37.1098 
 510   0.0000       1.372643        37.3515 
 511   0.0000       1.381019        37.5794 
 512   0.0000       1.389062        37.7983 
 513   0.0000       1.392197        37.8836 
 514   0.0000       1.400672        38.1142 
 515   0.0000       1.403345        38.1870 
 516   0.0000       1.409215        38.3467 
 517   0.0000       1.414360        38.4867 
 518   0.0000       1.418819        38.6080 
 519   0.0000       1.427609        38.8472 
 520   0.0000       1.429457        38.8975 
 521   0.0000       1.433816        39.0161 
 522   0.0000       1.440189        39.1895 
 523   0.0000       1.444378        39.3035 
 524   0.0000       1.452497        39.5244 
 525   0.0000       1.455781        39.6138 
 526   0.0000       1.465308        39.8731 
 527   0.0000       1.470034        40.0017 
 528   0.0000       1.473051        40.0838 
 529   0.0000       1.478115        40.2215 
 530   0.0000       1.488541        40.5053 
 531   0.0000       1.495861        40.7045 
 532   0.0000       1.501631        40.8615 
 533   0.0000       1.505566        40.9685 
 534   0.0000       1.518304        41.3152 
 535   0.0000       1.524723        41.4898 
 536   0.0000       1.530172        41.6381 
 537   0.0000       1.533007        41.7152 
 538   0.0000       1.536741        41.8168 
 539   0.0000       1.548118        42.1264 
 540   0.0000       1.550148        42.1817 
 541   0.0000       1.557597        42.3844 
 542   0.0000       1.561981        42.5037 
 543   0.0000       1.569400        42.7055 
 544   0.0000       1.577000        42.9124 
 545   0.0000       1.579703        42.9859 
 546   0.0000       1.588359        43.2214 
 547   0.0000       1.595330        43.4111 
 548   0.0000       1.603230        43.6261 
 549   0.0000       1.607055        43.7302 
 550   0.0000       1.613426        43.9036 
 551   0.0000       1.620060        44.0841 
 552   0.0000       1.631568        44.3972 
 553   0.0000       1.637066        44.5468 
 554   0.0000       1.641210        44.6596 
 555   0.0000       1.647918        44.8421 
 556   0.0000       1.665309        45.3154 
 557   0.0000       1.670695        45.4619 
 558   0.0000       1.677369        45.6435 
 559   0.0000       1.681092        45.7448 
 560   0.0000       1.690190        45.9924 
 561   0.0000       1.698474        46.2178 
 562   0.0000       1.703820        46.3633 
 563   0.0000       1.704744        46.3884 
 564   0.0000       1.711616        46.5754 
 565   0.0000       1.720724        46.8233 
 566   0.0000       1.731731        47.1228 
 567   0.0000       1.735199        47.2172 
 568   0.0000       1.739809        47.3426 
 569   0.0000       1.745538        47.4985 
 570   0.0000       1.754601        47.7451 
 571   0.0000       1.771631        48.2085 
 572   0.0000       1.785792        48.5939 
 573   0.0000       1.786504        48.6132 
 574   0.0000       1.794715        48.8367 
 575   0.0000       1.800270        48.9878 
 576   0.0000       1.803321        49.0709 
 577   0.0000       1.806729        49.1636 
 578   0.0000       1.813076        49.3363 
 579   0.0000       1.820933        49.5501 
 580   0.0000       1.825838        49.6836 
 581   0.0000       1.834907        49.9304 
 582   0.0000       1.839859        50.0651 
 583   0.0000       1.845530        50.2194 
 584   0.0000       1.850568        50.3565 
 585   0.0000       1.863780        50.7160 
 586   0.0000       1.866178        50.7813 
 587   0.0000       1.878816        51.1252 
 588   0.0000       1.885787        51.3149 
 589   0.0000       1.895212        51.5713 
 590   0.0000       1.914154        52.0868 
 591   0.0000       1.919210        52.2244 
 592   0.0000       1.925378        52.3922 
 593   0.0000       1.931738        52.5653 
 594   0.0000       1.938043        52.7368 
 595   0.0000       1.939406        52.7739 
 596   0.0000       1.944550        52.9139 
 597   0.0000       1.953200        53.1493 
 598   0.0000       1.957774        53.2737 
 599   0.0000       1.962722        53.4084 
 600   0.0000       1.970309        53.6148 
 601   0.0000       1.974521        53.7294 
 602   0.0000       1.980309        53.8869 
 603   0.0000       1.982580        53.9487 
 604   0.0000       1.985810        54.0366 
 605   0.0000       1.990219        54.1566 
 606   0.0000       1.994178        54.2643 
 607   0.0000       2.006204        54.5916 
 608   0.0000       2.007192        54.6185 
 609   0.0000       2.012873        54.7731 
 610   0.0000       2.014185        54.8088 
 611   0.0000       2.019557        54.9549 
 612   0.0000       2.026614        55.1470 
 613   0.0000       2.031103        55.2691 
 614   0.0000       2.036877        55.4262 
 615   0.0000       2.049163        55.7606 
 616   0.0000       2.057412        55.9850 
 617   0.0000       2.060552        56.0705 
 618   0.0000       2.066802        56.2405 
 619   0.0000       2.073827        56.4317 
 620   0.0000       2.077233        56.5244 
 621   0.0000       2.081147        56.6309 
 622   0.0000       2.084491        56.7219 
 623   0.0000       2.090729        56.8916 
 624   0.0000       2.098271        57.0969 
 625   0.0000       2.104063        57.2545 
 626   0.0000       2.110186        57.4211 
 627   0.0000       2.115741        57.5722 
 628   0.0000       2.118330        57.6427 
 629   0.0000       2.121037        57.7163 
 630   0.0000       2.126207        57.8570 
 631   0.0000       2.130552        57.9753 
 632   0.0000       2.133400        58.0528 
 633   0.0000       2.133696        58.0608 
 634   0.0000       2.140976        58.2589 
 635   0.0000       2.149306        58.4856 
 636   0.0000       2.156343        58.6771 
 637   0.0000       2.160593        58.7927 
 638   0.0000       2.168650        59.0120 
 639   0.0000       2.174018        59.1580 
 640   0.0000       2.186570        59.4996 
 641   0.0000       2.194355        59.7114 
 642   0.0000       2.201990        59.9192 
 643   0.0000       2.206873        60.0521 
 644   0.0000       2.213723        60.2385 
 645   0.0000       2.215999        60.3004 
 646   0.0000       2.221065        60.4383 
 647   0.0000       2.233545        60.7779 
 648   0.0000       2.234982        60.8170 
 649   0.0000       2.242376        61.0182 
 650   0.0000       2.250136        61.2293 
 651   0.0000       2.251836        61.2756 
 652   0.0000       2.259492        61.4839 
 653   0.0000       2.262502        61.5658 
 654   0.0000       2.263240        61.5859 
 655   0.0000       2.269639        61.7600 
 656   0.0000       2.277410        61.9715 
 657   0.0000       2.284338        62.1600 
 658   0.0000       2.299503        62.5727 
 659   0.0000       2.311007        62.8857 
 660   0.0000       2.317845        63.0718 
 661   0.0000       2.328463        63.3607 
 662   0.0000       2.334966        63.5376 
 663   0.0000       2.344799        63.8052 
 664   0.0000       2.362664        64.2913 
 665   0.0000       2.367911        64.4341 
 666   0.0000       2.376240        64.6608 
 667   0.0000       2.392067        65.0915 
 668   0.0000       2.396947        65.2242 
 669   0.0000       2.405994        65.4704 
 670   0.0000       2.413301        65.6693 
 671   0.0000       2.422159        65.9103 
 672   0.0000       2.429052        66.0979 
 673   0.0000       2.451185        66.7001 
 674   0.0000       2.456191        66.8363 
 675   0.0000       2.468147        67.1617 
 676   0.0000       2.471190        67.2445 
 677   0.0000       2.474788        67.3424 
 678   0.0000       2.482317        67.5473 
 679   0.0000       2.492911        67.8356 
 680   0.0000       2.502138        68.0866 
 681   0.0000       2.517122        68.4944 
 682   0.0000       2.529187        68.8227 
 683   0.0000       2.531917        68.8970 
 684   0.0000       2.534716        68.9731 
 685   0.0000       2.539501        69.1033 
 686   0.0000       2.550990        69.4160 
 687   0.0000       2.564446        69.7821 
 688   0.0000       2.569460        69.9186 
 689   0.0000       2.579479        70.1912 
 690   0.0000       2.591153        70.5089 
 691   0.0000       2.597712        70.6873 
 692   0.0000       2.604433        70.8702 
 693   0.0000       2.614724        71.1503 
 694   0.0000       2.623020        71.3760 
 695   0.0000       2.631797        71.6148 
 696   0.0000       2.640098        71.8407 
 697   0.0000       2.652445        72.1767 
 698   0.0000       2.660804        72.4042 
 699   0.0000       2.668165        72.6045 
 700   0.0000       2.677732        72.8648 
 701   0.0000       2.694243        73.3141 
 702   0.0000       2.699267        73.4508 
 703   0.0000       2.708751        73.7089 
 704   0.0000       2.723841        74.1195 
 705   0.0000       2.735239        74.4296 
 706   0.0000       2.745011        74.6955 
 707   0.0000       2.749761        74.8248 
 708   0.0000       2.753987        74.9398 
 709   0.0000       2.759072        75.0782 
 710   0.0000       2.767750        75.3143 
 711   0.0000       2.772056        75.4315 
 712   0.0000       2.774241        75.4909 
 713   0.0000       2.791576        75.9626 
 714   0.0000       2.808531        76.4240 
 715   0.0000       2.814186        76.5779 
 716   0.0000       2.836457        77.1839 
 717   0.0000       2.842411        77.3459 
 718   0.0000       2.854244        77.6679 
 719   0.0000       2.862247        77.8857 
 720   0.0000       2.868881        78.0662 
 721   0.0000       2.873885        78.2024 
 722   0.0000       2.880438        78.3807 
 723   0.0000       2.887134        78.5629 
 724   0.0000       2.890794        78.6625 
 725   0.0000       2.897882        78.8554 
 726   0.0000       2.899844        78.9088 
 727   0.0000       2.908631        79.1479 
 728   0.0000       2.916600        79.3647 
 729   0.0000       2.921429        79.4961 
 730   0.0000       2.928677        79.6933 
 731   0.0000       2.934767        79.8591 
 732   0.0000       2.940868        80.0251 
 733   0.0000       2.947541        80.2067 
 734   0.0000       2.959008        80.5187 
 735   0.0000       2.975616        80.9706 
 736   0.0000       2.987648        81.2980 
 737   0.0000       2.999132        81.6105 
 738   0.0000       3.005371        81.7803 
 739   0.0000       3.010867        81.9299 
 740   0.0000       3.015387        82.0529 
 741   0.0000       3.019392        82.1618 
 742   0.0000       3.030135        82.4542 
 743   0.0000       3.034587        82.5753 
 744   0.0000       3.038251        82.6750 
 745   0.0000       3.050662        83.0127 
 746   0.0000       3.055726        83.1505 
 747   0.0000       3.061895        83.3184 
 748   0.0000       3.069017        83.5122 
 749   0.0000       3.074870        83.6715 
 750   0.0000       3.080696        83.8300 
 751   0.0000       3.089393        84.0667 
 752   0.0000       3.096838        84.2692 
 753   0.0000       3.099754        84.3486 
 754   0.0000       3.107877        84.5696 
 755   0.0000       3.113943        84.7347 
 756   0.0000       3.118128        84.8486 
 757   0.0000       3.126338        85.0720 
 758   0.0000       3.136168        85.3395 
 759   0.0000       3.137553        85.3772 
 760   0.0000       3.143042        85.5265 
 761   0.0000       3.147814        85.6564 
 762   0.0000       3.150486        85.7291 
 763   0.0000       3.154736        85.8447 
 764   0.0000       3.158074        85.9356 
 765   0.0000       3.165642        86.1415 
 766   0.0000       3.167808        86.2004 
 767   0.0000       3.172195        86.3198 
 768   0.0000       3.182880        86.6106 
 769   0.0000       3.190451        86.8166 
 770   0.0000       3.199943        87.0749 
 771   0.0000       3.210705        87.3677 
 772   0.0000       3.215439        87.4965 
 773   0.0000       3.225459        87.7692 
 774   0.0000       3.230338        87.9020 
 775   0.0000       3.238210        88.1162 
 776   0.0000       3.246700        88.3472 
 777   0.0000       3.248915        88.4075 
 778   0.0000       3.251415        88.4755 
 779   0.0000       3.259683        88.7005 
 780   0.0000       3.265871        88.8689 
 781   0.0000       3.271780        89.0297 
 782   0.0000       3.274745        89.1103 
 783   0.0000       3.279285        89.2339 
 784   0.0000       3.286014        89.4170 
 785   0.0000       3.293473        89.6200 
 786   0.0000       3.302642        89.8695 
 787   0.0000       3.306096        89.9634 
 788   0.0000       3.309510        90.0563 
 789   0.0000       3.318840        90.3102 
 790   0.0000       3.326325        90.5139 
 791   0.0000       3.334452        90.7350 
 792   0.0000       3.336634        90.7944 
 793   0.0000       3.345601        91.0384 
 794   0.0000       3.358707        91.3951 
 795   0.0000       3.363363        91.5218 
 796   0.0000       3.370140        91.7062 
 797   0.0000       3.373322        91.7928 
 798   0.0000       3.383081        92.0583 
 799   0.0000       3.391554        92.2889 
 800   0.0000       3.397073        92.4391 
 801   0.0000       3.409095        92.7662 
 802   0.0000       3.411592        92.8341 
 803   0.0000       3.416216        92.9600 
 804   0.0000       3.418085        93.0108 
 805   0.0000       3.425893        93.2233 
 806   0.0000       3.427402        93.2643 
 807   0.0000       3.432802        93.4113 
 808   0.0000       3.437015        93.5259 
 809   0.0000       3.441979        93.6610 
 810   0.0000       3.450919        93.9043 
 811   0.0000       3.453752        93.9814 
 812   0.0000       3.457993        94.0968 
 813   0.0000       3.466260        94.3217 
 814   0.0000       3.471131        94.4543 
 815   0.0000       3.478890        94.6654 
 816   0.0000       3.489332        94.9495 
 817   0.0000       3.498227        95.1916 
 818   0.0000       3.499519        95.2268 
 819   0.0000       3.510513        95.5259 
 820   0.0000       3.514677        95.6392 
 821   0.0000       3.519931        95.7822 
 822   0.0000       3.528458        96.0142 
 823   0.0000       3.535082        96.1945 
 824   0.0000       3.543260        96.4170 
 825   0.0000       3.546464        96.5042 
 826   0.0000       3.554438        96.7212 
 827   0.0000       3.558152        96.8222 
 828   0.0000       3.561542        96.9145 
 829   0.0000       3.566105        97.0387 
 830   0.0000       3.572832        97.2217 
 831   0.0000       3.581986        97.4708 
 832   0.0000       3.590112        97.6919 
 833   0.0000       3.603908        98.0673 
 834   0.0000       3.607027        98.1522 
 835   0.0000       3.614689        98.3607 
 836   0.0000       3.624488        98.6273 
 837   0.0000       3.627439        98.7076 
 838   0.0000       3.638773        99.0161 
 839   0.0000       3.645543        99.2003 
 840   0.0000       3.656152        99.4889 
 841   0.0000       3.656727        99.5046 
 842   0.0000       3.665102        99.7325 
 843   0.0000       3.679801       100.1325 
 844   0.0000       3.683644       100.2371 
 845   0.0000       3.685747       100.2943 
 846   0.0000       3.699216       100.6608 
 847   0.0000       3.705818       100.8404 
 848   0.0000       3.708659       100.9177 
 849   0.0000       3.722712       101.3002 
 850   0.0000       3.728073       101.4460 
 851   0.0000       3.738290       101.7241 
 852   0.0000       3.746198       101.9392 
 853   0.0000       3.756142       102.2098 
 854   0.0000       3.758061       102.2620 
 855   0.0000       3.758989       102.2873 
 856   0.0000       3.769541       102.5744 
 857   0.0000       3.777564       102.7928 
 858   0.0000       3.781408       102.8973 
 859   0.0000       3.786041       103.0234 
 860   0.0000       3.792084       103.1879 
 861   0.0000       3.802263       103.4648 
 862   0.0000       3.805754       103.5598 
 863   0.0000       3.816828       103.8612 
 864   0.0000       3.825413       104.0948 
 865   0.0000       3.838165       104.4418 
 866   0.0000       3.854434       104.8845 
 867   0.0000       3.873077       105.3918 
 868   0.0000       3.881795       105.6290 
 869   0.0000       3.889860       105.8485 
 870   0.0000       3.895096       105.9909 
 871   0.0000       3.902970       106.2052 
 872   0.0000       3.907917       106.3398 
 873   0.0000       3.909859       106.3927 
 874   0.0000       3.914411       106.5165 
 875   0.0000       3.937313       107.1397 
 876   0.0000       3.941920       107.2651 
 877   0.0000       3.949050       107.4591 
 878   0.0000       3.955483       107.6342 
 879   0.0000       3.968272       107.9822 
 880   0.0000       3.978483       108.2600 
 881   0.0000       3.988276       108.5265 
 882   0.0000       3.995220       108.7155 
 883   0.0000       4.004522       108.9686 
 884   0.0000       4.006950       109.0347 
 885   0.0000       4.023059       109.4730 
 886   0.0000       4.028835       109.6302 
 887   0.0000       4.035624       109.8149 
 888   0.0000       4.042216       109.9943 
 889   0.0000       4.050340       110.2154 
 890   0.0000       4.053147       110.2917 
 891   0.0000       4.055850       110.3653 
 892   0.0000       4.064429       110.5987 
 893   0.0000       4.068689       110.7147 
 894   0.0000       4.073607       110.8485 
 895   0.0000       4.078523       110.9823 
 896   0.0000       4.106917       111.7549 
 897   0.0000       4.112138       111.8970 
 898   0.0000       4.123045       112.1938 
 899   0.0000       4.129052       112.3572 
 900   0.0000       4.141444       112.6944 
 901   0.0000       4.149010       112.9003 
 902   0.0000       4.153955       113.0349 
 903   0.0000       4.159107       113.1751 
 904   0.0000       4.164848       113.3313 
 905   0.0000       4.167653       113.4076 
 906   0.0000       4.175639       113.6249 
 907   0.0000       4.185355       113.8893 
 908   0.0000       4.190630       114.0328 
 909   0.0000       4.195233       114.1581 
 910   0.0000       4.196028       114.1797 
 911   0.0000       4.212510       114.6282 
 912   0.0000       4.223905       114.9383 
 913   0.0000       4.225325       114.9769 
 914   0.0000       4.227460       115.0350 
 915   0.0000       4.236436       115.2793 
 916   0.0000       4.243582       115.4737 
 917   0.0000       4.250612       115.6650 
 918   0.0000       4.251783       115.6969 
 919   0.0000       4.253741       115.7502 
 920   0.0000       4.270169       116.1972 
 921   0.0000       4.285364       116.6107 
 922   0.0000       4.296137       116.9038 
 923   0.0000       4.299503       116.9954 
 924   0.0000       4.303105       117.0934 
 925   0.0000       4.307781       117.2207 
 926   0.0000       4.308919       117.2517 
 927   0.0000       4.315185       117.4222 
 928   0.0000       4.324236       117.6684 
 929   0.0000       4.331714       117.8719 
 930   0.0000       4.335072       117.9633 
 931   0.0000       4.337397       118.0266 
 932   0.0000       4.339599       118.0865 
 933   0.0000       4.350948       118.3953 
 934   0.0000       4.358194       118.5925 
 935   0.0000       4.365854       118.8009 
 936   0.0000       4.373355       119.0051 
 937   0.0000       4.382511       119.2542 
 938   0.0000       4.389701       119.4498 
 939   0.0000       4.401003       119.7574 
 940   0.0000       4.406468       119.9061 
 941   0.0000       4.414120       120.1143 
 942   0.0000       4.421621       120.3184 
 943   0.0000       4.435097       120.6851 
 944   0.0000       4.455027       121.2275 
 945   0.0000       4.465260       121.5059 
 946   0.0000       4.492087       122.2359 
 947   0.0000       4.495194       122.3204 
 948   0.0000       4.513206       122.8106 
 949   0.0000       4.518249       122.9478 
 950   0.0000       4.533479       123.3622 
 951   0.0000       4.546293       123.7109 
 952   0.0000       4.559322       124.0655 
 953   0.0000       4.561335       124.1202 
 954   0.0000       4.593768       125.0028 
 955   0.0000       4.601943       125.2252 
 956   0.0000       4.605381       125.3188 
 957   0.0000       4.616882       125.6318 
 958   0.0000       4.644447       126.3818 
 959   0.0000       4.652982       126.6141 
 960   0.0000       4.670785       127.0985 
 961   0.0000       4.671910       127.1291 
 962   0.0000       4.688948       127.5928 
 963   0.0000       4.699772       127.8873 
 964   0.0000       4.708415       128.1225 
 965   0.0000       4.729430       128.6943 
 966   0.0000       4.733845       128.8145 
 967   0.0000       4.738489       128.9408 
 968   0.0000       4.754541       129.3776 
 969   0.0000       4.769370       129.7811 
 970   0.0000       4.779104       130.0460 
 971   0.0000       4.802888       130.6932 
 972   0.0000       4.814423       131.0071 
 973   0.0000       4.825116       131.2981 
 974   0.0000       4.836474       131.6071 
 975   0.0000       4.841939       131.7559 
 976   0.0000       4.862205       132.3073 
 977   0.0000       4.875699       132.6745 
 978   0.0000       4.884383       132.9108 
 979   0.0000       4.895540       133.2144 
 980   0.0000       4.922139       133.9382 
 981   0.0000       4.930698       134.1711 
 982   0.0000       4.949055       134.6706 
 983   0.0000       4.958461       134.9266 
 984   0.0000       4.969190       135.2185 
 985   0.0000       4.977467       135.4438 
 986   0.0000       4.988541       135.7451 
[...]
      pz      :     0.080558  p :     0.265714
      px      :     0.111673
      py      :     0.073483
      dz2     :     0.004765  d :     0.029417
      dxz     :     0.008571
      dyz     :     0.002158
      dx2y2   :     0.006858
      dxy     :     0.007065
 14 C s       :     2.639787  s :     2.639787
      pz      :     0.763389  p :     2.529579
      px      :     0.873002
      py      :     0.893189
      dz2     :     0.081410  d :     0.712885
      dxz     :     0.103592
      dyz     :     0.142519
      dx2y2   :     0.208798
      dxy     :     0.176566
      f0      :     0.004929  f :     0.044865
      f+1     :     0.001763
      f-1     :     0.006161
      f+2     :     0.005021
      f-2     :     0.008185
      f+3     :     0.008852
      f-3     :     0.009954
 15 C s       :     2.645358  s :     2.645358
      pz      :     0.804034  p :     2.598944
      px      :     0.893583
      py      :     0.901326
      dz2     :     0.104721  d :     0.661262
      dxz     :     0.115916
      dyz     :     0.099904
      dx2y2   :     0.132215
      dxy     :     0.208506
      f0      :     0.003178  f :     0.044929
      f+1     :     0.005351
      f-1     :     0.005319
      f+2     :     0.007443
      f-2     :     0.007262
      f+3     :     0.007573
      f-3     :     0.008804
 16 H s       :     0.704692  s :     0.704692
      pz      :     0.081637  p :     0.256837
      px      :     0.068596
      py      :     0.106604
      dz2     :     0.004632  d :     0.028636
      dxz     :     0.002816
      dyz     :     0.007976
      dx2y2   :     0.006653
      dxy     :     0.006560
 17 H s       :     0.685142  s :     0.685142
      pz      :     0.081179  p :     0.285405
      px      :     0.122397
      py      :     0.081829
      dz2     :     0.004445  d :     0.029136
      dxz     :     0.008502
      dyz     :     0.002117
      dx2y2   :     0.007235
      dxy     :     0.006837
 18 H s       :     0.704110  s :     0.704110
      pz      :     0.069384  p :     0.258575
      px      :     0.090568
      py      :     0.098623
      dz2     :     0.002856  d :     0.028987
      dxz     :     0.003649
      dyz     :     0.004932
      dx2y2   :     0.008810
      dxy     :     0.008739
 19 C s       :     2.711444  s :     2.711444
      pz      :     0.740781  p :     2.507840
      px      :     0.791122
      py      :     0.975937
      dz2     :     0.122972  d :     0.789076
      dxz     :     0.091509
      dyz     :     0.187934
      dx2y2   :     0.197024
      dxy     :     0.189637
      f0      :     0.004055  f :     0.047504
      f+1     :     0.001479
      f-1     :     0.008433
      f+2     :     0.007540
      f-2     :     0.007892
      f+3     :     0.009429
      f-3     :     0.008677
 20 C s       :     2.757974  s :     2.757974
      pz      :     0.906940  p :     2.703111
      px      :     0.830280
      py      :     0.965890
      dz2     :     0.111040  d :     0.578841
      dxz     :     0.085443
      dyz     :     0.155680
      dx2y2   :     0.121440
      dxy     :     0.105239
      f0      :     0.003692  f :     0.040416
      f+1     :     0.002342
      f-1     :     0.008932
      f+2     :     0.006962
      f-2     :     0.006057
      f+3     :     0.005620
      f-3     :     0.006812
 21 H s       :     0.713218  s :     0.713218
      pz      :     0.131047  p :     0.301876
      px      :     0.076475
      py      :     0.094354
      dz2     :     0.009961  d :     0.030320
      dxz     :     0.006122
      dyz     :     0.008723
      dx2y2   :     0.002701
      dxy     :     0.002813
 22 Aus       :     2.280642  s :     2.280642
      pz      :     2.230016  p :     6.819187
      px      :     2.296358
      py      :     2.292814
      dz2     :     1.886704  d :     9.557421
      dxz     :     1.938760
      dyz     :     1.943531
      dx2y2   :     2.029791
      dxy     :     1.758635
      f0      :     0.010248  f :     0.124960
      f+1     :     0.019216
      f-1     :     0.018658
      f+2     :     0.006699
      f-2     :     0.024445
      f+3     :     0.022979
      f-3     :     0.022715
      g0      :     0.000135  g :     0.001508
      g+1     :     0.000150
      g-1     :     0.000140
      g+2     :     0.000112
      g-2     :     0.000272
      g+3     :     0.000141
      g-3     :     0.000141
      g+4     :     0.000217
      g-4     :     0.000200
 23 Cls       :     5.702274  s :     5.702274
      pz      :     3.859326  p :    11.161724
      px      :     3.655400
      py      :     3.646998
      dz2     :     0.019874  d :     0.193113
      dxz     :     0.039336
      dyz     :     0.031987
      dx2y2   :     0.051629
      dxy     :     0.050287
      f0      :     0.000639  f :     0.006205
      f+1     :     0.000547
      f-1     :     0.000557
      f+2     :     0.000160
      f-2     :     0.001092
      f+3     :     0.001607
      f-3     :     0.001604
 24 Cls       :     5.714177  s :     5.714177
      pz      :     3.629786  p :    11.187692
      px      :     3.781985
      py      :     3.775921
      dz2     :     0.033993  d :     0.202952
      dxz     :     0.048567
      dyz     :     0.048244
      dx2y2   :     0.041056
      dxy     :     0.031091
      f0      :     0.000860  f :     0.006436
      f+1     :     0.001064
      f-1     :     0.001112
      f+2     :     0.001107
      f-2     :     0.001361
      f+3     :     0.000460
      f-3     :     0.000472
 25 Cls       :     5.699946  s :     5.699946
      pz      :     3.869774  p :    11.141507
      px      :     3.645741
      py      :     3.625992
      dz2     :     0.020661  d :     0.196466
      dxz     :     0.030236
      dyz     :     0.039300
      dx2y2   :     0.051805
      dxy     :     0.054463
      f0      :     0.000636  f :     0.006146
      f+1     :     0.000552
      f-1     :     0.000554
      f+2     :     0.000137
      f-2     :     0.001086
      f+3     :     0.001605
      f-3     :     0.001577
 26 O s       :     3.179089  s :     3.179089
      pz      :     1.417132  p :     4.269030
      px      :     1.460581
      py      :     1.391318
      dz2     :     0.113038  d :     0.542969
      dxz     :     0.098905
      dyz     :     0.128321
      dx2y2   :     0.108289
      dxy     :     0.094416
      f0      :     0.001701  f :     0.006900
      f+1     :     0.000968
      f-1     :     0.001130
      f+2     :     0.000428
      f-2     :     0.000997
      f+3     :     0.000793
      f-3     :     0.000881
 27 O s       :     3.179254  s :     3.179254
      pz      :     1.420547  p :     4.266618
      px      :     1.442341
      py      :     1.403729
      dz2     :     0.112299  d :     0.542950
      dxz     :     0.103826
      dyz     :     0.121719
      dx2y2   :     0.108113
      dxy     :     0.096993
      f0      :     0.001673  f :     0.006905
      f+1     :     0.001017
      f-1     :     0.001047
      f+2     :     0.000463
      f-2     :     0.001021
      f+3     :     0.000769
      f-3     :     0.000915
 28 C s       :     2.631881  s :     2.631881
      pz      :     0.925183  p :     2.549758
      px      :     0.837204
      py      :     0.787371
      dz2     :     0.127970  d :     0.629645
      dxz     :     0.068717
      dyz     :     0.119242
      dx2y2   :     0.184210
      dxy     :     0.129506
      f0      :     0.009157  f :     0.066182
      f+1     :     0.004912
      f-1     :     0.006613
      f+2     :     0.004661
      f-2     :     0.010574
      f+3     :     0.014535
      f-3     :     0.015730
 29 H s       :     0.692931  s :     0.692931
      pz      :     0.097761  p :     0.266423
      px      :     0.069067
      py      :     0.099595
      dz2     :     0.006059  d :     0.028648
      dxz     :     0.002616
      dyz     :     0.007431
      dx2y2   :     0.006135
      dxy     :     0.006407
 30 H s       :     0.705749  s :     0.705749
      pz      :     0.128861  p :     0.255419
      px      :     0.064645
      py      :     0.061912
      dz2     :     0.010530  d :     0.028983
      dxz     :     0.008477
      dyz     :     0.008820
      dx2y2   :     0.000466
      dxy     :     0.000690
 31 H s       :     0.695103  s :     0.695103
      pz      :     0.090542  p :     0.267711
      px      :     0.117951
      py      :     0.059217
      dz2     :     0.004637  d :     0.028578
      dxz     :     0.008237
      dyz     :     0.001253
      dx2y2   :     0.007445
      dxy     :     0.007006
 32 C s       :     2.632180  s :     2.632180
      pz      :     0.925344  p :     2.549995
      px      :     0.839211
      py      :     0.785441
      dz2     :     0.126387  d :     0.628950
      dxz     :     0.101616
      dyz     :     0.088402
      dx2y2   :     0.176035
      dxy     :     0.136510
      f0      :     0.009210  f :     0.066167
      f+1     :     0.004552
      f-1     :     0.006925
      f+2     :     0.005305
      f-2     :     0.009926
      f+3     :     0.015314
      f-3     :     0.014935
 33 H s       :     0.705513  s :     0.705513
      pz      :     0.128822  p :     0.255388
      px      :     0.067559
      py      :     0.059007
      dz2     :     0.010498  d :     0.028991
      dxz     :     0.009156
      dyz     :     0.008151
      dx2y2   :     0.000457
      dxy     :     0.000728
 34 H s       :     0.692875  s :     0.692875
      pz      :     0.089564  p :     0.266368
      px      :     0.074061
      py      :     0.102742
      dz2     :     0.004690  d :     0.028658
      dxz     :     0.002598
      dyz     :     0.006945
      dx2y2   :     0.007105
      dxy     :     0.007320
 35 H s       :     0.695840  s :     0.695840
      pz      :     0.098650  p :     0.267452
      px      :     0.112114
      py      :     0.056688
      dz2     :     0.006041  d :     0.028560
      dxz     :     0.008215
      dyz     :     0.001778
      dx2y2   :     0.006324
      dxy     :     0.006200


                      *****************************
                      * MAYER POPULATION ANALYSIS *
                      *****************************

  NA   - Mulliken gross atomic population
  ZA   - Total nuclear charge
  QA   - Mulliken gross atomic charge
  VA   - Mayer's total valence
  BVA  - Mayer's bonded valence
  FA   - Mayer's free valence

  ATOM       NA         ZA         QA         VA         BVA        FA
  0 C      4.9226     6.0000     1.0774    -0.0967    -0.0967    -0.0000
  1 C      6.4500     6.0000    -0.4500     3.7419     3.7419    -0.0000
  2 C      5.6430     6.0000     0.3570     3.6825     3.6825    -0.0000
  3 C      6.5143     6.0000    -0.5143     3.9085     3.9085     0.0000
  4 C      5.6506     6.0000     0.3494     3.5269     3.5269    -0.0000
  5 C      6.4141     6.0000    -0.4141     3.4832     3.4832     0.0000
  6 H      0.8228     1.0000     0.1772     0.9749     0.9749    -0.0000
  7 H      0.8912     1.0000     0.1088     1.0523     1.0523     0.0000
  8 H      0.8408     1.0000     0.1592     1.0087     1.0087     0.0000
  9 C      5.5090     6.0000     0.4910     0.5320     0.5320    -0.0000
 10 C      5.9350     6.0000     0.0650     3.1863     3.1863     0.0000
 11 C      5.8772     6.0000     0.1228     1.6105     1.6105    -0.0000
 12 C      6.2162     6.0000    -0.2162     3.5671     3.5671     0.0000
 13 H      0.8646     1.0000     0.1354     0.9510     0.9510     0.0000
 14 C      6.2243     6.0000    -0.2243     3.4718     3.4718    -0.0000
 15 C      6.1595     6.0000    -0.1595     3.3305     3.3305     0.0000
 16 H      0.9153     1.0000     0.0847     0.9371     0.9371     0.0000
 17 H      0.8793     1.0000     0.1207     0.9763     0.9763    -0.0000
 18 H      0.9113     1.0000     0.0887     0.9429     0.9429     0.0000
 19 C      5.1832     6.0000     0.8168    -0.1145    -0.1145    -0.0000
 20 C      6.4850     6.0000    -0.4850     3.4648     3.4648     0.0000
 21 H      0.9601     1.0000     0.0399     0.9638     0.9638    -0.0000
 22 Au    18.7108    19.0000     0.2892     2.9962     2.9962    -0.0000
 23 Cl    17.4549    17.0000    -0.4549     0.8276     0.8276    -0.0000
 24 Cl    17.3233    17.0000    -0.3233     0.9472     0.9472     0.0000
 25 Cl    17.4778    17.0000    -0.4778     0.8474     0.8474    -0.0000
 26 O      8.5455     8.0000    -0.5455     1.4731     1.4731    -0.0000
 27 O      8.5379     8.0000    -0.5379     1.4801     1.4801    -0.0000
 28 C      6.1446     6.0000    -0.1446     3.9863     3.9863     0.0000
 29 H      0.8718     1.0000     0.1282     1.0117     1.0117    -0.0000
 30 H      0.9636     1.0000     0.0364     1.0405     1.0405    -0.0000
 31 H      0.8664     1.0000     0.1336     0.9888     0.9888     0.0000
 32 C      6.1408     6.0000    -0.1408     3.9814     3.9814    -0.0000
 33 H      0.9616     1.0000     0.0384     1.0375     1.0375    -0.0000
 34 H      0.8617     1.0000     0.1383     1.0125     1.0125    -0.0000
 35 H      0.8699     1.0000     0.1301     1.0001     1.0001    -0.0000

  Mayer bond orders larger than 0.100000
B(  0-C ,  1-C ) :   0.7168 B(  0-C ,  3-C ) :  -0.2043 B(  0-C ,  4-C ) :  -0.1685 
B(  0-C ,  5-C ) :   0.9533 B(  0-C ,  6-H ) :  -0.1993 B(  0-C ,  8-H ) :  -0.1203 
B(  0-C ,  9-C ) :  -0.3610 B(  0-C , 10-C ) :  -0.2503 B(  0-C , 11-C ) :  -0.2865 
B(  0-C , 12-C ) :  -0.1465 B(  0-C , 14-C ) :  -0.2196 B(  0-C , 19-C ) :   0.1364 
B(  1-C ,  2-C ) :   1.6008 B(  1-C ,  5-C ) :   0.1836 B(  1-C ,  6-H ) :   0.9496 
B(  1-C , 10-C ) :   0.2420 B(  1-C , 14-C ) :  -0.1508 B(  1-C , 19-C ) :   0.1522 
B(  2-C ,  3-C ) :   1.4965 B(  2-C ,  6-H ) :   0.2067 B(  2-C ,  9-C ) :  -0.1881 
B(  2-C , 10-C ) :  -0.1793 B(  2-C , 14-C ) :   0.1352 B(  2-C , 26-O ) :   0.4520 
B(  3-C ,  4-C ) :   1.4917 B(  3-C ,  7-H ) :   0.8333 B(  4-C ,  5-C ) :   1.5294 
B(  4-C ,  8-H ) :   0.1134 B(  4-C ,  9-C ) :  -0.1090 B(  4-C , 27-O ) :   0.5314 
B(  5-C ,  8-H ) :   0.9564 B(  5-C ,  9-C ) :  -0.2527 B(  5-C , 10-C ) :   0.2175 
B(  5-C , 11-C ) :  -0.1531 B(  9-C , 10-C ) :   0.8187 B(  9-C , 11-C ) :   0.8186 
B(  9-C , 14-C ) :   0.1333 B(  9-C , 19-C ) :  -0.6978 B(  9-C , 20-C ) :   0.4024 
B( 10-C , 12-C ) :   1.3794 B( 10-C , 13-H ) :   0.9271 B( 11-C , 14-C ) :   1.5960 
B( 11-C , 15-C ) :  -0.2686 B( 11-C , 17-H ) :   0.1253 B( 11-C , 19-C ) :   0.6783 
B( 11-C , 20-C ) :  -0.8566 B( 11-C , 22-Au) :  -0.1049 B( 12-C , 15-C ) :   1.2973 
B( 12-C , 16-H ) :   1.0348 B( 14-C , 15-C ) :   1.2633 B( 14-C , 17-H ) :   0.9389 
B( 14-C , 19-C ) :  -0.3811 B( 15-C , 18-H ) :   1.0465 B( 19-C , 20-C ) :   1.0148 
B( 19-C , 22-Au) :  -0.4567 B( 19-C , 23-Cl) :  -0.5521 B( 19-C , 24-Cl) :   0.1142 
B( 19-C , 25-Cl) :  -0.1612 B( 20-C , 21-H ) :   1.0464 B( 20-C , 22-Au) :   1.1350 
B( 20-C , 23-Cl) :   0.4358 B( 22-Au, 23-Cl) :   0.8055 B( 22-Au, 24-Cl) :   0.7501 
B( 22-Au, 25-Cl) :   0.8713 B( 23-Cl, 25-Cl) :   0.1603 B( 26-O , 28-C ) :   0.9689 
B( 27-O , 32-C ) :   0.9530 B( 28-C , 29-H ) :   0.9610 B( 28-C , 30-H ) :   1.0532 
B( 28-C , 31-H ) :   0.9493 B( 32-C , 33-H ) :   1.0522 B( 32-C , 34-H ) :   0.9611 
B( 32-C , 35-H ) :   0.9523 

-------
TIMINGS
-------

Total SCF time: 0 days 0 hours 0 min 41 sec 

Total time                  ....      41.733 sec
Sum of individual times     ....      39.249 sec  ( 94.0%)

Fock matrix formation       ....      29.435 sec  ( 70.5%)
  Split-RI-J                ....      10.846 sec  ( 36.8% of F)
  XC integration            ....      17.716 sec  ( 60.2% of F)
    Basis function eval.    ....       1.778 sec  ( 10.0% of XC)
    Density eval.           ....       6.981 sec  ( 39.4% of XC)
    XC-Functional eval.     ....       0.170 sec  (  1.0% of XC)
    XC-Potential eval.      ....       7.899 sec  ( 44.6% of XC)
Diagonalization             ....       3.119 sec  (  7.5%)
Density matrix formation    ....       0.174 sec  (  0.4%)
Population analysis         ....       0.301 sec  (  0.7%)
Initial guess               ....       2.159 sec  (  5.2%)
Orbital Transformation      ....       0.000 sec  (  0.0%)
Orbital Orthonormalization  ....       0.000 sec  (  0.0%)
DIIS solution               ....       3.035 sec  (  7.3%)
Grid generation             ....       1.025 sec  (  2.5%)


-------------------------------------------------------------------------------
                          DFT DISPERSION CORRECTION                            
                                                                               
                              DFTD3 V3.1  Rev 1                                
                          USING Becke-Johnson damping                          
-------------------------------------------------------------------------------
The TPSS functional is recognized
Active option DFTDOPT                   ...         4   

molecular C6(AA) [au] = 24303.433404 


            DFT-D V3
 parameters
 s6 scaling factor         :     1.0000 
 a1 scaling factor         :     0.4535 
 s8 scaling factor         :     1.9435 
 a2 scaling factor         :     4.4752 
 ad hoc parameters k1-k3   :    16.0000     1.3333    -4.0000 

 Edisp/kcal,au: -44.513880860197  -0.070937376967 
 E6   /kcal   : -21.106159940 
 E8   /kcal   : -23.407720920 
 % E8         :  52.585217167 

-------------------------   ----------------
Dispersion correction           -0.070937377
-------------------------   ----------------


-------------------------   --------------------
FINAL SINGLE POINT ENERGY     -2285.482151595972
-------------------------   --------------------


                            ***************************************
                            *     ORCA property calculations      *
                            ***************************************

                                    ---------------------
                                    Active property flags
                                    ---------------------
   (+) Dipole Moment


------------------------------------------------------------------------------
                       ORCA ELECTRIC PROPERTIES CALCULATION
------------------------------------------------------------------------------

Dipole Moment Calculation                       ... on
Quadrupole Moment Calculation                   ... off
Polarizability Calculation                      ... off
GBWName                                         ... TMB26_C1.gbw
Electron density file                           ... TMB26_C1.scfp
The origin for moment calculation is the CENTER OF MASS  = (-0.429499, -0.138674 -0.003709)

-------------
DIPOLE MOMENT
-------------
                                X             Y             Z
Electronic contribution:   -300.16025    -110.66466     -12.30150
Nuclear contribution   :    303.49748     112.54151      11.37787
                        -----------------------------------------
Total Dipole Moment    :      3.33723       1.87685      -0.92363
                        -----------------------------------------
Magnitude (a.u.)       :      3.93863
Magnitude (Debye)      :     10.01120



--------------------
Rotational spectrum 
--------------------
 
Rotational constants in cm-1:     0.007370     0.004054     0.003244 
Rotational constants in MHz :   220.947502   121.548879    97.259691 

 Dipole components along the rotational axes: 
x,y,z [a.u.] :     3.450535     1.679029    -0.887387 
x,y,z [Debye]:     8.770564     4.267752    -2.255557 

 

Timings for individual modules:

Sum of individual times         ...       46.595 sec (=   0.777 min)
GTO integral calculation        ...        4.520 sec (=   0.075 min)   9.7 %
SCF iterations                  ...       42.075 sec (=   0.701 min)  90.3 %
                             ****ORCA TERMINATED NORMALLY****
TOTAL RUN TIME: 0 days 0 hours 0 minutes 47 seconds 311 msec
