
                                 *****************
                                 * O   R   C   A *
                                 *****************

           --- An Ab Initio, DFT and Semiempirical electronic structure package ---

                  #######################################################
                  #                        -***-                        #
                  #          Department of theory and spectroscopy      #
                  #               Directorship: Frank Neese             #
                  #        Max Planck Institute fuer Kohlenforschung    #
                  #                Kaiser Wilhelm Platz 1               #
                  #                 D-45470 Muelheim/Ruhr               #
                  #                      Germany                        #
                  #                                                     #
                  #                  All rights reserved                #
                  #                        -***-                        #
                  #######################################################


                         Program Version 4.2.0 -  RELEASE  -


 With contributions from (in alphabetic order):
   Daniel Aravena         : Magnetic Suceptibility
   Michael Atanasov       : Ab Initio Ligand Field Theory (pilot matlab implementation)
   Alexander A. Auer      : GIAO ZORA, VPT2
   Ute Becker             : Parallelization
   Giovanni Bistoni       : ED, misc. LED, open-shell LED, HFLED
   Martin Brehm           : Molecular dynamics
   Dmytro Bykov           : SCF Hessian
   Vijay G. Chilkuri      : MRCI spin determinant printing, contributions to CSF-ICE
   Dipayan Datta          : RHF DLPNO-CCSD density
   Achintya Kumar Dutta   : EOM-CC, STEOM-CC
   Dmitry Ganyushin       : Spin-Orbit,Spin-Spin,Magnetic field MRCI
   Miquel Garcia          : C-PCM Hessian, Gaussian charge scheme
   Yang Guo               : DLPNO-NEVPT2, CIM, IAO-localization
   Andreas Hansen         : Spin unrestricted coupled pair/coupled cluster methods
   Benjamin Helmich-Paris : CASSCF linear response (MC-RPA)
   Lee Huntington         : MR-EOM, pCC
   Robert Izsak           : Overlap fitted RIJCOSX, COSX-SCS-MP3, EOM
   Christian Kollmar      : KDIIS, OOCD, Brueckner-CCSD(T), CCSD density
   Simone Kossmann        : Meta GGA functionals, TD-DFT gradient, OOMP2, MP2 Hessian
   Martin Krupicka        : AUTO-CI
   Lucas Lang             : DCDCAS
   Dagmar Lenk            : GEPOL surface, SMD
   Dimitrios Liakos       : Extrapolation schemes; Compound Job, initial MDCI parallelization
   Dimitrios Manganas     : Further ROCIS development; embedding schemes
   Dimitrios Pantazis     : SARC Basis sets
   Taras Petrenko         : DFT Hessian,TD-DFT gradient, ASA, ECA, R-Raman, ABS, FL, XAS/XES, NRVS
   Peter Pinski           : DLPNO-MP2, DLPNO-MP2 Gradient
   Christoph Reimann      : Effective Core Potentials
   Marius Retegan         : Local ZFS, SOC
   Christoph Riplinger    : Optimizer, TS searches, QM/MM, DLPNO-CCSD(T), (RO)-DLPNO pert. Triples
   Tobias Risthaus        : Range-separated hybrids, TD-DFT gradient, RPA, STAB
   Michael Roemelt        : Original ROCIS implementation
   Masaaki Saitow         : Open-shell DLPNO-CCSD energy and density
   Barbara Sandhoefer     : DKH picture change effects
   Avijit Sen             : IP-ROCIS
   Kantharuban Sivalingam : CASSCF convergence, NEVPT2, FIC-MRCI
   Bernardo de Souza      : ESD, SOC TD-DFT
   Georgi Stoychev        : AutoAux, RI-MP2 NMR
   Willem Van den Heuvel  : Paramagnetic NMR
   Boris Wezisla          : Elementary symmetry handling
   Frank Wennmohs         : Technical directorship


 We gratefully acknowledge several colleagues who have allowed us to
 interface, adapt or use parts of their codes:
   Stefan Grimme, W. Hujo, H. Kruse,             : VdW corrections, initial TS optimization,
                  C. Bannwarth                     DFT functionals, gCP, sTDA/sTD-DF
   Ed Valeev, F. Pavosevic, A. Kumar             : LibInt (2-el integral package), F12 methods
   Garnet Chan, S. Sharma, J. Yang, R. Olivares  : DMRG
   Ulf Ekstrom                                   : XCFun DFT Library
   Mihaly Kallay                                 : mrcc  (arbitrary order and MRCC methods)
   Andreas Klamt, Michael Diedenhofen            : otool_cosmo (COSMO solvation model)
   Jiri Pittner, Ondrej Demel                    : Mk-CCSD
   Frank Weinhold                                : gennbo (NPA and NBO analysis)
   Christopher J. Cramer and Donald G. Truhlar   : smd solvation model
   Lars Goerigk                                  : TD-DFT with DH, B97 family of functionals
   V. Asgeirsson, H. Jonsson                     : NEB implementation
   FAccTs GmbH                                   : IRC, NEB, NEB-TS, Multilevel, MM, QM/MM, CI optimization
   S Lehtola, MJT Oliveira, MAL Marques          : LibXC Library


 Your calculation uses the libint2 library for the computation of 2-el integrals
 For citations please refer to: http://libint.valeyev.net

 Your ORCA version has been built with support for libXC version: 4.2.3
 For citations please refer to: https://tddft.org/programs/libxc/

 This ORCA versions uses:
   CBLAS   interface :  Fast vector & matrix operations
   LAPACKE interface :  Fast linear algebra routines
   SCALAPACK package :  Parallel linear algebra routines


Your calculation utilizes the atom-pairwise dispersion correction
with the Becke-Johnson damping scheme (D3BJ)
Cite in your paper:
S.Grimme, S.Ehrlich, L.Goerigk, J Comput Chem, (2011), 32, 1456–1465 
S.Grimme, J.Antony, S.Ehrlich and H.Krieg, J.Chem.Phys., 132, (2010), 154104 
   

----- Orbital basis set information -----
Your calculation utilizes the basis: def2-TZVPPD
   F. Weigend and R. Ahlrichs, Phys. Chem. Chem. Phys. 7, 3297 (2005).
   D. Rappoport and F. Furche, J. Chem. Phys. 133 134105 (2010).

----- AuxJ basis set information -----
Your calculation utilizes the auxiliary basis: def2/J
   F. Weigend, Phys. Chem. Chem. Phys. 8, 1057 (2006).

cite the ECPs for Au [Def2-ECP] as follows:
Ce-Yb(ecp-28): M. Dolg, H. Stoll, H.Preuss, J. Chem. Phys., 1989, 90, 1730-1734.
Y-Cd(ecp-28), Hf-Hg(ecp-46): D. Andrae,U. Haeussermann, M. Dolg, H. Stoll, H. Preuss, Theor. Chim. Acta, 1990, 77, 123-141.
In-Sb(ecp-28), Tl-Bi(ecp-46): B. Metz, H. Stoll, M. Dolg, J. Chem. Phys., 2000, 113, 2563-2569.
Te-Xe(ecp-28), Po-Rn(ecp-46): K. A. Peterson, D. Figgen, E. Goll, H. Stoll, M. Dolg, J. Chem. Phys., 2003, 119, 11113-11123.
Rb(ecp-28), Cs(ecp-46): T. Leininger, A. Nicklass, W. Kuechle, H. Stoll, M. Dolg, A. Bergner, Chem. Phys. Lett., 1996, 255, 274-280.
Sr(ecp-28), Ba(ecp-46): M. Kaupp, P. V. Schleyer, H. Stoll and H. Preuss, J. Chem. Phys., 1991, 94, 1360-1366.
La(ecp-46): M. Dolg, H. Stoll, A. Savin, H. Preuss, Theor. Chim. Acta, 1989, 75, 173-194.
Lu(ecp-28): X. Cao, M. Dolg, J. Chem. Phys., 2001, 115, 7348-7355.

ECP parameters for Au [Def2-ECP] have been obtained from:
TURBOMOLE (7.0.2)

================================================================================
                                        WARNINGS
                       Please study these warnings very carefully!
================================================================================


INFO   : the flag for use of LIBINT has been found!

================================================================================
                                       INPUT FILE
================================================================================
NAME = TMB28_T1.in
|  1> #
|  2> # TMB28_T1 TPSS-D3BJ/Def2-TZVPPD
|  3> #
|  4> ! tpss d3bj def2-tzvppd def2/j grid4 nofinalgrid
|  5> 
|  6> *xyz 0 1
|  7> C       -0.472087   -1.270184   -0.544262 
|  8> C       -1.371263   -0.408913   -0.410763 
|  9> C       -0.283188   -2.679486   -0.928311 
| 10> H       -1.250337   -3.132270   -1.147533 
| 11> H        0.355340   -2.736203   -1.811412 
| 12> H        0.207850   -3.220295   -0.118359 
| 13> C       -2.087605    0.860649   -0.268000 
| 14> O       -3.384272    0.602181    0.322954 
| 15> C       -3.916162   -0.562532   -0.037107 
| 16> O       -3.286397   -1.359772   -0.698080 
| 17> C       -1.360806    1.791956    0.779385 
| 18> O       -0.796250    2.763376    0.375084 
| 19> C       -1.472551    1.401357    2.216606 
| 20> H       -1.203914    0.352090    2.355444 
| 21> H       -0.810137    2.031512    2.804683 
| 22> H       -2.503869    1.535124    2.549793 
| 23> C       -5.307153   -0.755812    0.455050 
| 24> H       -5.663745   -1.741165    0.170882 
| 25> H       -5.328847   -0.642840    1.539841 
| 26> H       -5.952574    0.015643    0.032531 
| 27> C       -2.259938    1.568911   -1.595082 
| 28> H       -2.813189    2.495499   -1.446777 
| 29> H       -1.275651    1.804221   -1.997337 
| 30> H       -2.786554    0.924255   -2.298279 
| 31> Au       1.278819   -0.204328   -0.045979 
| 32> Cl       1.126476   -1.118462    2.051374 
| 33> Cl       3.319842    0.694072    0.431966 
| 34> Cl       1.372434    0.585236   -2.189571 
| 35> *
| 36> 
| 37> %maxcore 5000
| 38> 
| 39> %pal
| 40> nprocs = 24
| 41> end
| 42> 
| 43> 
| 44>                          ****END OF INPUT****
================================================================================

                       ****************************
                       * Single Point Calculation *
                       ****************************

---------------------------------
CARTESIAN COORDINATES (ANGSTROEM)
---------------------------------
  C     -0.472087   -1.270184   -0.544262
  C     -1.371263   -0.408913   -0.410763
  C     -0.283188   -2.679486   -0.928311
  H     -1.250337   -3.132270   -1.147533
  H      0.355340   -2.736203   -1.811412
  H      0.207850   -3.220295   -0.118359
  C     -2.087605    0.860649   -0.268000
  O     -3.384272    0.602181    0.322954
  C     -3.916162   -0.562532   -0.037107
  O     -3.286397   -1.359772   -0.698080
  C     -1.360806    1.791956    0.779385
  O     -0.796250    2.763376    0.375084
  C     -1.472551    1.401357    2.216606
  H     -1.203914    0.352090    2.355444
  H     -0.810137    2.031512    2.804683
  H     -2.503869    1.535124    2.549793
  C     -5.307153   -0.755812    0.455050
  H     -5.663745   -1.741165    0.170882
  H     -5.328847   -0.642840    1.539841
  H     -5.952574    0.015643    0.032531
  C     -2.259938    1.568911   -1.595082
  H     -2.813189    2.495499   -1.446777
  H     -1.275651    1.804221   -1.997337
  H     -2.786554    0.924255   -2.298279
  Au     1.278819   -0.204328   -0.045979
  Cl     1.126476   -1.118462    2.051374
  Cl     3.319842    0.694072    0.431966
  Cl     1.372434    0.585236   -2.189571

----------------------------
CARTESIAN COORDINATES (A.U.)
----------------------------
  NO LB      ZA    FRAG     MASS         X           Y           Z
   0 C     6.0000    0    12.011   -0.892115   -2.400300   -1.028506
   1 C     6.0000    0    12.011   -2.591312   -0.772734   -0.776230
   2 C     6.0000    0    12.011   -0.535148   -5.063495   -1.754254
   3 H     1.0000    0     1.008   -2.362795   -5.919132   -2.168523
   4 H     1.0000    0     1.008    0.671495   -5.170674   -3.423073
   5 H     1.0000    0     1.008    0.392780   -6.085476   -0.223666
   6 C     6.0000    0    12.011   -3.945002    1.626391   -0.506447
   7 O     8.0000    0    15.999   -6.395347    1.137957    0.610295
   8 C     6.0000    0    12.011   -7.400474   -1.063031   -0.070122
   9 O     8.0000    0    15.999   -6.210390   -2.569597   -1.319180
  10 C     6.0000    0    12.011   -2.571551    3.386306    1.472824
  11 O     8.0000    0    15.999   -1.504694    5.222024    0.708806
  12 C     6.0000    0    12.011   -2.782718    2.648181    4.188778
  13 H     1.0000    0     1.008   -2.275068    0.665354    4.451144
  14 H     1.0000    0     1.008   -1.530937    3.839001    5.300083
  15 H     1.0000    0     1.008   -4.731627    2.900964    4.818410
  16 C     6.0000    0    12.011  -10.029066   -1.428278    0.859920
  17 H     1.0000    0     1.008  -10.702927   -3.290325    0.322920
  18 H     1.0000    0     1.008  -10.070061   -1.214792    2.909878
  19 H     1.0000    0     1.008  -11.248735    0.029561    0.061475
  20 C     6.0000    0    12.011   -4.270664    2.964812   -3.014268
  21 H     1.0000    0     1.008   -5.316157    4.715810   -2.734012
  22 H     1.0000    0     1.008   -2.410631    3.409484   -3.774420
  23 H     1.0000    0     1.008   -5.265824    1.746589   -4.343118
  24 Au   19.0000*   0   196.966    2.416618   -0.386124   -0.086888
  25 Cl   17.0000    0    35.453    2.128731   -2.113587    3.876535
  26 Cl   17.0000    0    35.453    6.273592    1.311606    0.816297
  27 Cl   17.0000    0    35.453    2.593524    1.105936   -4.137690
* core charge reduced due to ECP

--------------------------------
INTERNAL COORDINATES (ANGSTROEM)
--------------------------------
 C      0   0   0     0.000000000000     0.00000000     0.00000000
 C      1   0   0     1.252248856026     0.00000000     0.00000000
 C      1   2   0     1.472857289015   141.07702461     0.00000000
 H      3   1   2     1.090159999331   109.63750653   358.03721652
 H      3   1   2     1.091238837778   109.62088466   118.34092398
 H      3   1   2     1.090694702577   109.78852170   237.02701532
 C      2   1   3     1.464689320975   163.28020086   197.46470051
 O      7   2   1     1.448232593898   108.84248464   200.91155478
 C      8   7   2     1.330077918090   113.81988782   326.29476002
 O      9   8   7     1.212056467147   121.05277956     6.51185867
 C      7   2   1     1.578792213331   110.53729082   314.88136912
 O     11   7   2     1.194085253295   118.22385184   109.46910521
 C     11   7   2     1.493538994023   116.72315645   287.68231112
 H     13  11   7     1.091972099141   110.80825707    50.68828866
 H     13  11   7     1.087070461999   108.86757826   171.50893416
 H     13  11   7     1.092027474188   109.40404845   291.55296993
 C      9   8   7     1.488096647779   113.45346579   186.21059033
 H     17   9   8     1.085739306324   109.77423071   182.81323835
 H     17   9   8     1.090873418918   109.51315684   304.10736463
 H     17   9   8     1.090978180179   109.45482488    61.68024420
 C      7   2   1     1.514093906684   112.06737085    79.23555669
 H     21   7   2     1.089332990306   109.65604914   178.86896945
 H     21   7   2     1.089036629087   108.78077681   297.98435516
 H     21   7   2     1.089675084877   110.11383430    57.42518388
 Au     1   2   3     2.109503918380   102.90264063   179.02463072
 Cl    25   1   2     2.292976006463    87.67772502    98.14714879
 Cl    25   1   2     2.280642205510   172.45375702   181.42782011
 Cl    25   1   2     2.286298698942    89.25579408   276.20020864

---------------------------
INTERNAL COORDINATES (A.U.)
---------------------------
 C      0   0   0     0.000000000000     0.00000000     0.00000000
 C      1   0   0     2.366407389405     0.00000000     0.00000000
 C      1   2   0     2.783296910589   141.07702461     0.00000000
 H      3   1   2     2.060103840891   109.63750653   358.03721652
 H      3   1   2     2.062142550098   109.62088466   118.34092398
 H      3   1   2     2.061114283589   109.78852170   237.02701532
 C      2   1   3     2.767861687921   163.28020086   197.46470051
 O      7   2   1     2.736762980686   108.84248464   200.91155478
 C      8   7   2     2.513483001966   113.81988782   326.29476002
 O      9   8   7     2.290454781757   121.05277956     6.51185867
 C      7   2   1     2.983484905563   110.53729082   314.88136912
 O     11   7   2     2.256494109282   118.22385184   109.46910521
 C     11   7   2     2.822379669036   116.72315645   287.68231112
 H     13  11   7     2.063528213259   110.80825707    50.68828866
 H     13  11   7     2.054265461453   108.86757826   171.50893416
 H     13  11   7     2.063632856934   109.40404845   291.55296993
 C      9   8   7     2.812095125108   113.45346579   186.21059033
 H     17   9   8     2.051749941786   109.77423071   182.81323835
 H     17   9   8     2.061452008529   109.51315684   304.10736463
 H     17   9   8     2.061649978622   109.45482488    61.68024420
 C      7   2   1     2.861222824671   112.06737085    79.23555669
 H     21   7   2     2.058541020325   109.65604914   178.86896945
 H     21   7   2     2.057980978784   108.78077681   297.98435516
 H     21   7   2     2.059187485374   110.11383430    57.42518388
 Au     1   2   3     3.986384684172   102.90264063   179.02463072
 Cl    25   1   2     4.333096683867    87.67772502    98.14714879
 Cl    25   1   2     4.309789177876   172.45375702   181.42782011
 Cl    25   1   2     4.320478401341    89.25579408   276.20020864

---------------------
BASIS SET INFORMATION
---------------------
There are 5 groups of distinct atoms

 Group   1 Type C   : 12s6p3d1f contracted to 6s3p3d1f pattern {621111/411/111/1}
 Group   2 Type H   : 5s3p1d contracted to 3s3p1d pattern {311/111/1}
 Group   3 Type O   : 12s7p3d1f contracted to 6s4p3d1f pattern {621111/4111/111/1}
 Group   4 Type Au  : 8s8p6d2f1g contracted to 6s5p3d2f1g pattern {311111/41111/411/11/1}
 Group   5 Type Cl  : 15s10p4d1f contracted to 6s6p4d1f pattern {732111/511111/1111/1}

Atom   0C    basis set group =>   1
Atom   1C    basis set group =>   1
Atom   2C    basis set group =>   1
Atom   3H    basis set group =>   2
Atom   4H    basis set group =>   2
Atom   5H    basis set group =>   2
Atom   6C    basis set group =>   1
Atom   7O    basis set group =>   3
Atom   8C    basis set group =>   1
Atom   9O    basis set group =>   3
Atom  10C    basis set group =>   1
Atom  11O    basis set group =>   3
Atom  12C    basis set group =>   1
Atom  13H    basis set group =>   2
Atom  14H    basis set group =>   2
Atom  15H    basis set group =>   2
Atom  16C    basis set group =>   1
Atom  17H    basis set group =>   2
Atom  18H    basis set group =>   2
Atom  19H    basis set group =>   2
Atom  20C    basis set group =>   1
Atom  21H    basis set group =>   2
Atom  22H    basis set group =>   2
Atom  23H    basis set group =>   2
Atom  24Au   basis set group =>   4
Atom  25Cl   basis set group =>   5
Atom  26Cl   basis set group =>   5
Atom  27Cl   basis set group =>   5
---------------------------------
AUXILIARY/J BASIS SET INFORMATION
---------------------------------
There are 5 groups of distinct atoms

 Group   1 Type C   : 12s5p4d2f1g contracted to 6s4p3d1f1g pattern {711111/2111/211/2/1}
 Group   2 Type H   : 5s2p1d contracted to 3s1p1d pattern {311/2/1}
 Group   3 Type O   : 12s5p4d2f1g contracted to 6s4p3d1f1g pattern {711111/2111/211/2/1}
 Group   4 Type Au  : 11s5p5d3f3g contracted to 8s5p5d2f3g pattern {41111111/11111/11111/21/111}
 Group   5 Type Cl  : 14s5p5d2f1g contracted to 8s4p3d1f1g pattern {71111111/2111/311/2/1}

Atom   0C    basis set group =>   1
Atom   1C    basis set group =>   1
Atom   2C    basis set group =>   1
Atom   3H    basis set group =>   2
Atom   4H    basis set group =>   2
Atom   5H    basis set group =>   2
Atom   6C    basis set group =>   1
Atom   7O    basis set group =>   3
Atom   8C    basis set group =>   1
Atom   9O    basis set group =>   3
Atom  10C    basis set group =>   1
Atom  11O    basis set group =>   3
Atom  12C    basis set group =>   1
Atom  13H    basis set group =>   2
Atom  14H    basis set group =>   2
Atom  15H    basis set group =>   2
Atom  16C    basis set group =>   1
Atom  17H    basis set group =>   2
Atom  18H    basis set group =>   2
Atom  19H    basis set group =>   2
Atom  20C    basis set group =>   1
Atom  21H    basis set group =>   2
Atom  22H    basis set group =>   2
Atom  23H    basis set group =>   2
Atom  24Au   basis set group =>   4
Atom  25Cl   basis set group =>   5
Atom  26Cl   basis set group =>   5
Atom  27Cl   basis set group =>   5
-------------------------
ECP PARAMETER INFORMATION
-------------------------

 Group 1, Type Au ECP Def2-ECP (replacing 60 core electrons, lmax=3)

Atom  24Au   ECP group =>   1



           ************************************************************
           *        Program running with 24 parallel MPI-processes    *
           *              working on a common directory               *
           ************************************************************
------------------------------------------------------------------------------
                           ORCA GTO INTEGRAL CALCULATION
                           -- RI-GTO INTEGRALS CHOSEN --
------------------------------------------------------------------------------

                         BASIS SET STATISTICS AND STARTUP INFO

Gaussian basis set:
 # of primitive gaussian shells          ...  490
 # of primitive gaussian functions       ... 1162
 # of contracted shells                  ...  311
 # of contracted basis functions         ...  869
 Highest angular momentum                ...    4
 Maximum contraction depth               ...    7
Auxiliary gaussian basis set:
 # of primitive gaussian shells          ...  492
 # of primitive gaussian functions       ... 1362
 # of contracted shells                  ...  314
 # of contracted aux-basis functions     ...  962
 Highest angular momentum                ...    4
 Maximum contraction depth               ...    7
Ratio of auxiliary to basis functions    ...  1.11
Integral package used                  ... LIBINT
 One Electron integrals                  
   ECP integrals                         ... done
 Ordering auxiliary basis shells         ... done
 Integral threshhold             Thresh  ...  1.000e-10
 Primitive cut-off               TCut    ...  1.000e-11
 Pre-screening matrix                    ... done
 Shell pair data                         ... 
 Ordering of the shell pairs             ... done (   0.007 sec) 40003 of 48516 pairs
 Determination of significant pairs      ... done (   0.000 sec)
 Creation of shell pair data             ... done (   0.004 sec)
 Storage of shell pair data              ... done (   0.014 sec)
 Shell pair data done in (   0.025 sec)
 Computing two index integrals           ... done
 Cholesky decomposition of the V-matrix  ... done


Timings:
 Total evaluation time                   ...   3.293 sec (  0.055 min)
 One electron matrix time                ...   2.799 sec (  0.047 min) = 85.0%
 Schwartz matrix evaluation time         ...   0.408 sec (  0.007 min) = 12.4%
 Two index repulsion integral time       ...   0.020 sec (  0.000 min) =  0.6%
 Cholesky decomposition of V             ...   0.015 sec (  0.000 min) =  0.4%
 Three index repulsion integral time     ...   0.000 sec (  0.000 min) =  0.0%



           ************************************************************
           *        Program running with 24 parallel MPI-processes    *
           *              working on a common directory               *
           ************************************************************
-------------------------------------------------------------------------------
                                 ORCA SCF
-------------------------------------------------------------------------------

------------
SCF SETTINGS
------------
Hamiltonian:
 Density Functional     Method          .... DFT(GTOs)
 Exchange Functional    Exchange        .... TPSS
 Correlation Functional Correlation     .... TPSS
 LDA part of GGA corr.  LDAOpt          .... PW91-LDA
 Gradients option       PostSCFGGA      .... off
   Density functional embedding theory  .... OFF
   NL short-range parameter             ....  5.000000
 RI-approximation to the Coulomb term is turned on
   Number of auxiliary basis functions  .... 962


General Settings:
 Integral files         IntName         .... TMB28_T1
 Hartree-Fock type      HFTyp           .... RHF
 Total Charge           Charge          ....    0
 Multiplicity           Mult            ....    1
 Number of Electrons    NEL             ....  160
 Basis Dimension        Dim             ....  869
 Nuclear Repulsion      ENuc            ....   1815.7180678798 Eh

Convergence Acceleration:
 DIIS                   CNVDIIS         .... on
   Start iteration      DIISMaxIt       ....    12
   Startup error        DIISStart       ....  0.200000
   # of expansion vecs  DIISMaxEq       ....     5
   Bias factor          DIISBfac        ....   1.050
   Max. coefficient     DIISMaxC        ....  10.000
 Newton-Raphson         CNVNR           .... off
 SOSCF                  CNVSOSCF        .... off
 Level Shifting         CNVShift        .... on
   Level shift para.    LevelShift      ....    0.2500
   Turn off err/grad.   ShiftErr        ....    0.0010
 Zerner damping         CNVZerner       .... off
 Static damping         CNVDamp         .... on
   Fraction old density DampFac         ....    0.7000
   Max. Damping (<1)    DampMax         ....    0.9800
   Min. Damping (>=0)   DampMin         ....    0.0000
   Turn off err/grad.   DampErr         ....    0.1000
 Fernandez-Rico         CNVRico         .... off

SCF Procedure:
 Maximum # iterations   MaxIter         ....   125
 SCF integral mode      SCFMode         .... Direct
   Integral package                     .... LIBINT
 Reset frequency        DirectResetFreq ....    20
 Integral Threshold     Thresh          ....  1.000e-10 Eh
 Primitive CutOff       TCut            ....  1.000e-11 Eh

Convergence Tolerance:
 Convergence Check Mode ConvCheckMode   .... Total+1el-Energy
 Convergence forced     ConvForced      .... 0
 Energy Change          TolE            ....  1.000e-06 Eh
 1-El. energy change                    ....  1.000e-03 Eh
 DIIS Error             TolErr          ....  1.000e-06


Diagonalization of the overlap matrix:
Smallest eigenvalue                        ... 1.885e-07
Time for diagonalization                   ...    0.129 sec
Threshold for overlap eigenvalues          ... 1.000e-08
Number of eigenvalues below threshold      ... 0
Time for construction of square roots      ...    0.099 sec
Total time needed                          ...    0.230 sec

-------------------
DFT GRID GENERATION
-------------------

General Integration Accuracy     IntAcc      ...  4.670
Radial Grid Type                 RadialGrid  ... Gauss-Chebyshev
Angular Grid (max. acc.)         AngularGrid ... Lebedev-302
Angular grid pruning method      GridPruning ... 3 (G Style)
Weight generation scheme         WeightScheme... Becke
Basis function cutoff            BFCut       ...    1.0000e-10
Integration weight cutoff        WCut        ...    1.0000e-14
Grids for H and He will be reduced by one unit

# of grid points (after initial pruning)     ... 147138 (   0.0 sec)
# of grid points (after weights+screening)   ... 130360 (   0.1 sec)
nearest neighbour list constructed           ...    0.0 sec
Grid point re-assignment to atoms done       ...    0.0 sec
Grid point division into batches done        ...    0.5 sec
Reduced shell lists constructed in    0.6 sec

Total number of grid points                  ...   130360
Total number of batches                      ...     2050
Average number of points per batch           ...       63
Average number of grid points per atom       ...     4656
Average number of shells per batch           ...   197.51 (63.51%)
Average number of basis functions per batch  ...   557.55 (64.16%)
Average number of large shells per batch     ...   155.85 (78.91%)
Average number of large basis fcns per batch ...   436.20 (78.23%)
Maximum spatial batch extension              ...   2.13,  2.30,  2.10 au
Average spatial batch extension              ...   0.05,  0.05,  0.05 au

Time for grid setup =    0.731 sec

------------------------------
INITIAL GUESS: MODEL POTENTIAL
------------------------------
Loading Hartree-Fock densities                     ... done
  calling /sw/apps/orca/orca_4_2_0_linux_x86-64_openmpi314/orca TMB28_T1_atom79.inp > TMB28_T1_atom79.out in order to generate an atomic fitting density for atom 24 (Au with ECP) on-the-fly... 
    atom 24 (Au), assumed electronic state with S=2: 1s2 2s2 2p6 3s2 3p6 4s2 3d10 4p6 5s2 4d10 5p6 6s1 4f14 5d10           ... done
Calculating cut-offs                               ... done
Setting up the integral package                    ... done
Initializing the effective Hamiltonian             ... done
Starting the Coulomb interaction                   ... done (   0.1 sec)
Reading the grid                                   ... done
Mapping shells                                     ... done
Starting the XC term evaluation                    ... done (   0.4 sec)
  promolecular density results
     # of electrons  =    219.995963809
     EX              =   -522.019289279
     EC              =     -9.857500713
     EX+EC           =   -531.876789991
Transforming the Hamiltonian                       ... done (   0.1 sec)
Diagonalizing the Hamiltonian                      ... done (   0.1 sec)
Back transforming the eigenvectors                 ... done (   0.0 sec)
Now organizing SCF variables                       ... done
                      ------------------
                      INITIAL GUESS DONE (   2.6 sec)
                      ------------------
--------------
SCF ITERATIONS
--------------
ITER       Energy         Delta-E        Max-DP      RMS-DP      [F,P]     Damp
               ***  Starting incremental Fock matrix formation  ***
  0  -2092.1546902266   0.000000000000 7.92956174  0.01702781  0.5630999 0.7000
  1  -2092.3731245754  -0.218434348842 6.17090369  0.01323184  0.3973811 0.7000
  2  -2092.4443730253  -0.071248449853 3.96175439  0.00864788  0.2780938 0.7000
                               ***Turning on DIIS***
  3  -2092.4928649380  -0.048491912708 1.76940827  0.00411052  0.1933071 0.7000
  4  -2092.5273116880  -0.034446750021 1.35882881  0.00313293  0.1339354 0.7000
  5  -2092.5513024738  -0.023990785733 6.50317991  0.01404570  0.0932839 0.0000
  6  -2092.6070330489  -0.055730575169 1.70426542  0.00362139  0.0047950 0.0000
  7  -2092.6071172269  -0.000084177982 1.11033633  0.00223710  0.0024864 0.0000
  8  -2092.6071366280  -0.000019401076 2.50015559  0.00554715  0.0008696 0.0000
  9  -2092.6071390550  -0.000002427022 4.64744399  0.00965329  0.0007189 0.0000
 10  -2092.6071408577  -0.000001802659 4.08109625  0.00841295  0.0002807 0.0000
 11  -2092.6071413181  -0.000000460420 1.36588640  0.00300746  0.0001896 0.0000
                 **** Energy Check signals convergence ****

               *****************************************************
               *                     SUCCESS                       *
               *           SCF CONVERGED AFTER  12 CYCLES          *
               *****************************************************


----------------
TOTAL SCF ENERGY
----------------

Total Energy       :        -2092.60714140 Eh          -56942.73523 eV

Components:
Nuclear Repulsion  :         1815.71806788 Eh           49408.20049 eV
Electronic Energy  :        -3908.32520928 Eh         -106350.93572 eV
One Electron Energy:        -6544.63413246 Eh         -178088.54859 eV
Two Electron Energy:         2636.30892318 Eh           71737.61287 eV

Virial components:
Potential Energy   :        -4090.52692181 Eh         -111308.89638 eV
Kinetic Energy     :         1997.91978042 Eh           54366.16115 eV
Virial Ratio       :            2.04739297


DFT components:
N(Alpha)           :       80.000114518037 electrons
N(Beta)            :       80.000114518037 electrons
N(Total)           :      160.000229036074 electrons
E(X)               :     -171.037401125073 Eh       
E(C)               :       -5.858117190458 Eh       
E(XC)              :     -176.895518315531 Eh       
DFET-embed. en.    :        0.000000000000 Eh       

---------------
SCF CONVERGENCE
---------------

  Last Energy change         ...   -7.7958e-08  Tolerance :   1.0000e-06
  Last MAX-Density change    ...    2.0485e+00  Tolerance :   1.0000e-05
  Last RMS-Density change    ...    4.4680e-03  Tolerance :   1.0000e-06
  Last DIIS Error            ...    6.1247e-05  Tolerance :   1.0000e-06

             **** THE GBW FILE WAS UPDATED (TMB28_T1.gbw) ****
             **** DENSITY FILE WAS UPDATED (TMB28_T1.scfp) ****
             **** ENERGY FILE WAS UPDATED (TMB28_T1.en.tmp) ****
             **** THE GBW FILE WAS UPDATED (TMB28_T1.gbw) ****
             **** DENSITY FILE WAS UPDATED (TMB28_T1.scfp) ****
----------------
ORBITAL ENERGIES
----------------

  NO   OCC          E(Eh)            E(eV) 
   0   2.0000    -100.961407     -2747.2996 
   1   2.0000    -100.958961     -2747.2330 
   2   2.0000    -100.948925     -2746.9599 
   3   2.0000     -18.991926      -516.7966 
   4   2.0000     -18.947665      -515.5922 
   5   2.0000     -18.916884      -514.7546 
   6   2.0000     -10.171414      -276.7782 
   7   2.0000     -10.125889      -275.5394 
   8   2.0000     -10.113892      -275.2130 
   9   2.0000     -10.077741      -274.2293 
  10   2.0000     -10.055144      -273.6144 
  11   2.0000     -10.048521      -273.4342 
  12   2.0000     -10.027059      -272.8502 
  13   2.0000     -10.015210      -272.5277 
  14   2.0000     -10.014115      -272.4979 
  15   2.0000      -9.210786      -250.6382 
  16   2.0000      -9.208286      -250.5702 
  17   2.0000      -9.198241      -250.2969 
  18   2.0000      -6.988838      -190.1760 
  19   2.0000      -6.986527      -190.1131 
  20   2.0000      -6.980833      -189.9581 
  21   2.0000      -6.980365      -189.9454 
  22   2.0000      -6.978279      -189.8886 
  23   2.0000      -6.977744      -189.8741 
  24   2.0000      -6.976847      -189.8497 
  25   2.0000      -6.968166      -189.6134 
  26   2.0000      -6.967375      -189.5919 
  27   2.0000      -4.127452      -112.3137 
  28   2.0000      -2.340472       -63.6875 
  29   2.0000      -2.339159       -63.6518 
  30   2.0000      -2.314737       -62.9872 
  31   2.0000      -1.114008       -30.3137 
  32   2.0000      -1.027838       -27.9689 
  33   2.0000      -1.017809       -27.6960 
  34   2.0000      -0.822347       -22.3772 
  35   2.0000      -0.775200       -21.0943 
  36   2.0000      -0.744194       -20.2506 
  37   2.0000      -0.732900       -19.9432 
  38   2.0000      -0.724838       -19.7238 
  39   2.0000      -0.716753       -19.5039 
  40   2.0000      -0.710570       -19.3356 
  41   2.0000      -0.689779       -18.7699 
  42   2.0000      -0.649761       -17.6809 
  43   2.0000      -0.600004       -16.3269 
  44   2.0000      -0.564362       -15.3571 
  45   2.0000      -0.515961       -14.0400 
  46   2.0000      -0.497486       -13.5373 
  47   2.0000      -0.488422       -13.2906 
  48   2.0000      -0.472009       -12.8440 
  49   2.0000      -0.459592       -12.5061 
  50   2.0000      -0.453554       -12.3418 
  51   2.0000      -0.439445       -11.9579 
  52   2.0000      -0.433844       -11.8055 
  53   2.0000      -0.428520       -11.6606 
  54   2.0000      -0.424052       -11.5390 
  55   2.0000      -0.415197       -11.2981 
  56   2.0000      -0.412917       -11.2360 
  57   2.0000      -0.406750       -11.0682 
  58   2.0000      -0.402556       -10.9541 
  59   2.0000      -0.391051       -10.6410 
  60   2.0000      -0.388769       -10.5789 
  61   2.0000      -0.386446       -10.5157 
  62   2.0000      -0.377163       -10.2631 
  63   2.0000      -0.368252       -10.0206 
  64   2.0000      -0.364939        -9.9305 
  65   2.0000      -0.359341        -9.7782 
  66   2.0000      -0.353155        -9.6098 
  67   2.0000      -0.337541        -9.1850 
  68   2.0000      -0.333940        -9.0870 
  69   2.0000      -0.310825        -8.4580 
  70   2.0000      -0.308282        -8.3888 
  71   2.0000      -0.294203        -8.0057 
  72   2.0000      -0.280969        -7.6456 
  73   2.0000      -0.272201        -7.4070 
  74   2.0000      -0.255390        -6.9495 
  75   2.0000      -0.249561        -6.7909 
  76   2.0000      -0.240819        -6.5530 
  77   2.0000      -0.238039        -6.4774 
  78   2.0000      -0.236670        -6.4401 
  79   2.0000      -0.230614        -6.2753 
  80   0.0000      -0.158448        -4.3116 
  81   0.0000      -0.103172        -2.8074 
  82   0.0000      -0.088436        -2.4065 
  83   0.0000      -0.071105        -1.9349 
  84   0.0000      -0.049461        -1.3459 
  85   0.0000      -0.032970        -0.8972 
  86   0.0000      -0.006195        -0.1686 
  87   0.0000      -0.003542        -0.0964 
  88   0.0000       0.002512         0.0684 
  89   0.0000       0.010031         0.2730 
  90   0.0000       0.017857         0.4859 
  91   0.0000       0.022418         0.6100 
  92   0.0000       0.026921         0.7326 
  93   0.0000       0.031322         0.8523 
  94   0.0000       0.035418         0.9638 
  95   0.0000       0.038716         1.0535 
  96   0.0000       0.043574         1.1857 
  97   0.0000       0.046110         1.2547 
  98   0.0000       0.051133         1.3914 
  99   0.0000       0.055539         1.5113 
 100   0.0000       0.061166         1.6644 
 101   0.0000       0.064763         1.7623 
 102   0.0000       0.068382         1.8608 
 103   0.0000       0.069976         1.9041 
 104   0.0000       0.075023         2.0415 
 105   0.0000       0.077130         2.0988 
 106   0.0000       0.083087         2.2609 
 107   0.0000       0.084420         2.2972 
 108   0.0000       0.086262         2.3473 
 109   0.0000       0.089469         2.4346 
 110   0.0000       0.092758         2.5241 
 111   0.0000       0.095819         2.6074 
 112   0.0000       0.101183         2.7533 
 113   0.0000       0.104729         2.8498 
 114   0.0000       0.107197         2.9170 
 115   0.0000       0.111304         3.0287 
 116   0.0000       0.115573         3.1449 
 117   0.0000       0.118704         3.2301 
 118   0.0000       0.121815         3.3148 
 119   0.0000       0.129423         3.5218 
 120   0.0000       0.131246         3.5714 
 121   0.0000       0.135985         3.7003 
 122   0.0000       0.142700         3.8831 
 123   0.0000       0.146530         3.9873 
 124   0.0000       0.150532         4.0962 
 125   0.0000       0.152600         4.1525 
 126   0.0000       0.156738         4.2651 
 127   0.0000       0.161036         4.3820 
 128   0.0000       0.167153         4.5485 
 129   0.0000       0.172228         4.6866 
 130   0.0000       0.173257         4.7145 
 131   0.0000       0.179784         4.8922 
 132   0.0000       0.181037         4.9263 
 133   0.0000       0.183988         5.0066 
 134   0.0000       0.187597         5.1048 
 135   0.0000       0.188132         5.1193 
 136   0.0000       0.195798         5.3279 
 137   0.0000       0.200290         5.4502 
 138   0.0000       0.202071         5.4986 
 139   0.0000       0.203673         5.5422 
 140   0.0000       0.206357         5.6153 
 141   0.0000       0.209378         5.6975 
 142   0.0000       0.211430         5.7533 
 143   0.0000       0.216815         5.8998 
 144   0.0000       0.217766         5.9257 
 145   0.0000       0.220118         5.9897 
 146   0.0000       0.221221         6.0197 
 147   0.0000       0.224338         6.1045 
 148   0.0000       0.230049         6.2599 
 149   0.0000       0.230553         6.2737 
 150   0.0000       0.233957         6.3663 
 151   0.0000       0.236442         6.4339 
 152   0.0000       0.241228         6.5641 
 153   0.0000       0.241949         6.5838 
 154   0.0000       0.244163         6.6440 
 155   0.0000       0.246799         6.7157 
 156   0.0000       0.248416         6.7597 
 157   0.0000       0.250214         6.8087 
 158   0.0000       0.254376         6.9219 
 159   0.0000       0.255558         6.9541 
 160   0.0000       0.260097         7.0776 
 161   0.0000       0.261777         7.1233 
 162   0.0000       0.264462         7.1964 
 163   0.0000       0.268314         7.3012 
 164   0.0000       0.269157         7.3241 
 165   0.0000       0.272463         7.4141 
 166   0.0000       0.276220         7.5163 
 167   0.0000       0.280196         7.6245 
 168   0.0000       0.285215         7.7611 
 169   0.0000       0.286307         7.7908 
 170   0.0000       0.288622         7.8538 
 171   0.0000       0.293134         7.9766 
 172   0.0000       0.296880         8.0785 
 173   0.0000       0.297958         8.1078 
 174   0.0000       0.300155         8.1676 
 175   0.0000       0.302334         8.2269 
 176   0.0000       0.306003         8.3268 
 177   0.0000       0.308197         8.3865 
 178   0.0000       0.313446         8.5293 
 179   0.0000       0.315116         8.5747 
 180   0.0000       0.315410         8.5827 
 181   0.0000       0.319534         8.6950 
 182   0.0000       0.320695         8.7266 
 183   0.0000       0.324608         8.8330 
 184   0.0000       0.328003         8.9254 
 185   0.0000       0.329811         8.9746 
 186   0.0000       0.332913         9.0590 
 187   0.0000       0.336072         9.1450 
 188   0.0000       0.338585         9.2134 
 189   0.0000       0.344518         9.3748 
 190   0.0000       0.350677         9.5424 
 191   0.0000       0.351352         9.5608 
 192   0.0000       0.356088         9.6896 
 193   0.0000       0.362407         9.8616 
 194   0.0000       0.366226         9.9655 
 195   0.0000       0.369021        10.0416 
 196   0.0000       0.369843        10.0639 
 197   0.0000       0.371326        10.1043 
 198   0.0000       0.377873        10.2824 
 199   0.0000       0.382797        10.4164 
 200   0.0000       0.386436        10.5155 
 201   0.0000       0.389675        10.6036 
 202   0.0000       0.393303        10.7023 
 203   0.0000       0.394913        10.7461 
 204   0.0000       0.398401        10.8410 
 205   0.0000       0.404796        11.0151 
 206   0.0000       0.407753        11.0955 
 207   0.0000       0.409808        11.1514 
 208   0.0000       0.416424        11.3315 
 209   0.0000       0.421297        11.4641 
 210   0.0000       0.425461        11.5774 
 211   0.0000       0.426883        11.6161 
 212   0.0000       0.430824        11.7233 
 213   0.0000       0.435772        11.8580 
 214   0.0000       0.441088        12.0026 
 215   0.0000       0.441855        12.0235 
 216   0.0000       0.443455        12.0670 
 217   0.0000       0.450828        12.2677 
 218   0.0000       0.454578        12.3697 
 219   0.0000       0.457652        12.4534 
 220   0.0000       0.463357        12.6086 
 221   0.0000       0.464282        12.6338 
 222   0.0000       0.470468        12.8021 
 223   0.0000       0.473178        12.8758 
 224   0.0000       0.476110        12.9556 
 225   0.0000       0.484521        13.1845 
 226   0.0000       0.487588        13.2680 
 227   0.0000       0.491884        13.3849 
 228   0.0000       0.494617        13.4592 
 229   0.0000       0.495918        13.4946 
 230   0.0000       0.503071        13.6893 
 231   0.0000       0.508611        13.8400 
 232   0.0000       0.517095        14.0709 
 233   0.0000       0.517928        14.0935 
 234   0.0000       0.525804        14.3079 
 235   0.0000       0.526439        14.3251 
 236   0.0000       0.529109        14.3978 
 237   0.0000       0.531668        14.4674 
 238   0.0000       0.538567        14.6552 
 239   0.0000       0.541622        14.7383 
 240   0.0000       0.546001        14.8574 
 241   0.0000       0.548000        14.9118 
 242   0.0000       0.551404        15.0045 
 243   0.0000       0.553717        15.0674 
 244   0.0000       0.558032        15.1848 
 245   0.0000       0.560078        15.2405 
 246   0.0000       0.566606        15.4181 
 247   0.0000       0.570005        15.5106 
 248   0.0000       0.576398        15.6846 
 249   0.0000       0.577848        15.7240 
 250   0.0000       0.582665        15.8551 
 251   0.0000       0.588022        16.0009 
 252   0.0000       0.591206        16.0875 
 253   0.0000       0.594861        16.1870 
 254   0.0000       0.597166        16.2497 
 255   0.0000       0.600337        16.3360 
 256   0.0000       0.605161        16.4673 
 257   0.0000       0.610204        16.6045 
 258   0.0000       0.612526        16.6677 
 259   0.0000       0.614146        16.7118 
 260   0.0000       0.616940        16.7878 
 261   0.0000       0.621963        16.9245 
 262   0.0000       0.625156        17.0114 
 263   0.0000       0.630042        17.1443 
 264   0.0000       0.632393        17.2083 
 265   0.0000       0.634186        17.2571 
 266   0.0000       0.637705        17.3528 
 267   0.0000       0.640892        17.4395 
 268   0.0000       0.642038        17.4707 
 269   0.0000       0.646315        17.5871 
 270   0.0000       0.647475        17.6187 
 271   0.0000       0.651623        17.7316 
 272   0.0000       0.656546        17.8655 
 273   0.0000       0.658790        17.9266 
 274   0.0000       0.660622        17.9764 
 275   0.0000       0.663691        18.0600 
 276   0.0000       0.668381        18.1876 
 277   0.0000       0.670189        18.2368 
 278   0.0000       0.676286        18.4027 
 279   0.0000       0.678024        18.4500 
 280   0.0000       0.680898        18.5282 
 281   0.0000       0.686003        18.6671 
 282   0.0000       0.688229        18.7277 
 283   0.0000       0.691948        18.8289 
 284   0.0000       0.695430        18.9236 
 285   0.0000       0.697859        18.9897 
 286   0.0000       0.704340        19.1661 
 287   0.0000       0.708563        19.2810 
 288   0.0000       0.711471        19.3601 
 289   0.0000       0.716389        19.4939 
 290   0.0000       0.719223        19.5711 
 291   0.0000       0.724631        19.7182 
 292   0.0000       0.725690        19.7470 
 293   0.0000       0.729265        19.8443 
 294   0.0000       0.734604        19.9896 
 295   0.0000       0.741411        20.1748 
 296   0.0000       0.744546        20.2601 
 297   0.0000       0.750474        20.4214 
 298   0.0000       0.756277        20.5794 
 299   0.0000       0.760092        20.6832 
 300   0.0000       0.762425        20.7466 
 301   0.0000       0.766666        20.8620 
 302   0.0000       0.769723        20.9452 
 303   0.0000       0.772385        21.0177 
 304   0.0000       0.776246        21.1227 
 305   0.0000       0.780514        21.2389 
 306   0.0000       0.786744        21.4084 
 307   0.0000       0.799497        21.7554 
 308   0.0000       0.803263        21.8579 
 309   0.0000       0.808633        22.0040 
 310   0.0000       0.810597        22.0575 
 311   0.0000       0.813699        22.1419 
 312   0.0000       0.822527        22.3821 
 313   0.0000       0.827483        22.5170 
 314   0.0000       0.829579        22.5740 
 315   0.0000       0.831745        22.6329 
 316   0.0000       0.838424        22.8147 
 317   0.0000       0.846097        23.0235 
 318   0.0000       0.851188        23.1620 
 319   0.0000       0.857309        23.3286 
 320   0.0000       0.864679        23.5291 
 321   0.0000       0.871741        23.7213 
 322   0.0000       0.876358        23.8469 
 323   0.0000       0.883317        24.0363 
 324   0.0000       0.893816        24.3220 
 325   0.0000       0.896576        24.3971 
 326   0.0000       0.899425        24.4746 
 327   0.0000       0.901739        24.5376 
 328   0.0000       0.907066        24.6825 
 329   0.0000       0.918179        24.9849 
 330   0.0000       0.922691        25.1077 
 331   0.0000       0.931413        25.3450 
 332   0.0000       0.940194        25.5840 
 333   0.0000       0.944921        25.7126 
 334   0.0000       0.950718        25.8704 
 335   0.0000       0.957447        26.0535 
 336   0.0000       0.965234        26.2654 
 337   0.0000       0.968210        26.3463 
 338   0.0000       0.978917        26.6377 
 339   0.0000       0.982741        26.7418 
 340   0.0000       0.987029        26.8584 
 341   0.0000       0.993410        27.0321 
 342   0.0000       0.999971        27.2106 
 343   0.0000       1.005364        27.3573 
 344   0.0000       1.019358        27.7381 
 345   0.0000       1.022338        27.8192 
 346   0.0000       1.028153        27.9775 
 347   0.0000       1.035558        28.1790 
 348   0.0000       1.041161        28.3314 
 349   0.0000       1.049137        28.5485 
 350   0.0000       1.055649        28.7257 
 351   0.0000       1.059166        28.8214 
 352   0.0000       1.069494        29.1024 
 353   0.0000       1.076210        29.2852 
 354   0.0000       1.081558        29.4307 
 355   0.0000       1.100548        29.9474 
 356   0.0000       1.107959        30.1491 
 357   0.0000       1.115273        30.3481 
 358   0.0000       1.126764        30.6608 
 359   0.0000       1.129540        30.7364 
 360   0.0000       1.134102        30.8605 
 361   0.0000       1.146033        31.1851 
 362   0.0000       1.156510        31.4702 
 363   0.0000       1.161314        31.6010 
 364   0.0000       1.168195        31.7882 
 365   0.0000       1.169620        31.8270 
 366   0.0000       1.176287        32.0084 
 367   0.0000       1.187980        32.3266 
 368   0.0000       1.200646        32.6712 
 369   0.0000       1.204271        32.7699 
 370   0.0000       1.209177        32.9034 
 371   0.0000       1.213119        33.0107 
 372   0.0000       1.217364        33.1262 
 373   0.0000       1.223994        33.3066 
 374   0.0000       1.231511        33.5111 
 375   0.0000       1.237999        33.6877 
 376   0.0000       1.243445        33.8358 
 377   0.0000       1.253311        34.1043 
 378   0.0000       1.256598        34.1938 
 379   0.0000       1.267501        34.4904 
 380   0.0000       1.272466        34.6255 
 381   0.0000       1.274328        34.6762 
 382   0.0000       1.280266        34.8378 
 383   0.0000       1.285068        34.9685 
 384   0.0000       1.291257        35.1369 
 385   0.0000       1.306624        35.5550 
 386   0.0000       1.315094        35.7855 
 387   0.0000       1.317398        35.8482 
 388   0.0000       1.324071        36.0298 
 389   0.0000       1.327208        36.1152 
 390   0.0000       1.329832        36.1866 
 391   0.0000       1.340559        36.4785 
 392   0.0000       1.348753        36.7014 
 393   0.0000       1.351482        36.7757 
 394   0.0000       1.359894        37.0046 
 395   0.0000       1.373430        37.3729 
 396   0.0000       1.382113        37.6092 
 397   0.0000       1.391640        37.8685 
 398   0.0000       1.398682        38.0601 
 399   0.0000       1.401327        38.1321 
 400   0.0000       1.406791        38.2807 
 401   0.0000       1.418655        38.6036 
 402   0.0000       1.438855        39.1532 
 403   0.0000       1.449131        39.4329 
 404   0.0000       1.452651        39.5287 
 405   0.0000       1.455979        39.6192 
 406   0.0000       1.461523        39.7701 
 407   0.0000       1.479020        40.2462 
 408   0.0000       1.480030        40.2737 
 409   0.0000       1.488144        40.4945 
 410   0.0000       1.502720        40.8911 
 411   0.0000       1.513257        41.1778 
 412   0.0000       1.532001        41.6879 
 413   0.0000       1.534907        41.7669 
 414   0.0000       1.546794        42.0904 
 415   0.0000       1.558364        42.4052 
 416   0.0000       1.560859        42.4731 
 417   0.0000       1.567514        42.6542 
 418   0.0000       1.573681        42.8220 
 419   0.0000       1.577717        42.9319 
 420   0.0000       1.585849        43.1532 
 421   0.0000       1.591935        43.3188 
 422   0.0000       1.605599        43.6906 
 423   0.0000       1.617249        44.0076 
 424   0.0000       1.619340        44.0645 
 425   0.0000       1.622581        44.1527 
 426   0.0000       1.625648        44.2361 
 427   0.0000       1.633529        44.4506 
 428   0.0000       1.642257        44.6881 
 429   0.0000       1.644191        44.7407 
 430   0.0000       1.650209        44.9045 
 431   0.0000       1.664240        45.2863 
 432   0.0000       1.671170        45.4748 
 433   0.0000       1.675854        45.6023 
 434   0.0000       1.679348        45.6974 
 435   0.0000       1.692307        46.0500 
 436   0.0000       1.701969        46.3129 
 437   0.0000       1.712447        46.5981 
 438   0.0000       1.734871        47.2082 
 439   0.0000       1.738475        47.3063 
 440   0.0000       1.743660        47.4474 
 441   0.0000       1.748217        47.5714 
 442   0.0000       1.769065        48.1387 
 443   0.0000       1.776067        48.3293 
 444   0.0000       1.783517        48.5320 
 445   0.0000       1.793867        48.8136 
 446   0.0000       1.798088        48.9285 
 447   0.0000       1.821486        49.5651 
 448   0.0000       1.824895        49.6579 
 449   0.0000       1.856047        50.5056 
 450   0.0000       1.859826        50.6084 
 451   0.0000       1.874699        51.0132 
 452   0.0000       1.890859        51.4529 
 453   0.0000       1.904062        51.8122 
 454   0.0000       1.911521        52.0151 
 455   0.0000       1.929202        52.4963 
 456   0.0000       1.932150        52.5765 
 457   0.0000       1.935726        52.6738 
 458   0.0000       1.948065        53.0095 
 459   0.0000       1.948858        53.0311 
 460   0.0000       1.964633        53.4604 
 461   0.0000       1.968117        53.5552 
 462   0.0000       1.979079        53.8535 
 463   0.0000       1.979764        53.8721 
 464   0.0000       1.987136        54.0727 
 465   0.0000       1.994009        54.2598 
 466   0.0000       1.995646        54.3043 
 467   0.0000       2.004144        54.5355 
 468   0.0000       2.007461        54.6258 
 469   0.0000       2.014473        54.8166 
 470   0.0000       2.018749        54.9330 
 471   0.0000       2.023654        55.0664 
 472   0.0000       2.028602        55.2011 
 473   0.0000       2.035254        55.3821 
 474   0.0000       2.044537        55.6347 
 475   0.0000       2.050985        55.8101 
 476   0.0000       2.062251        56.1167 
 477   0.0000       2.068237        56.2796 
 478   0.0000       2.072322        56.3908 
 479   0.0000       2.077373        56.5282 
 480   0.0000       2.087104        56.7930 
 481   0.0000       2.092494        56.9396 
 482   0.0000       2.100674        57.1622 
 483   0.0000       2.103053        57.2270 
 484   0.0000       2.114979        57.5515 
 485   0.0000       2.119261        57.6680 
 486   0.0000       2.121642        57.7328 
 487   0.0000       2.124904        57.8216 
 488   0.0000       2.131384        57.9979 
 489   0.0000       2.138275        58.1854 
 490   0.0000       2.151849        58.5548 
 491   0.0000       2.155423        58.6520 
 492   0.0000       2.162451        58.8433 
 493   0.0000       2.170089        59.0511 
 494   0.0000       2.176888        59.2361 
 495   0.0000       2.187092        59.5138 
 496   0.0000       2.192126        59.6508 
 497   0.0000       2.208727        60.1025 
 498   0.0000       2.214245        60.2527 
 499   0.0000       2.221756        60.4570 
 500   0.0000       2.228053        60.6284 
 501   0.0000       2.246191        61.1220 
 502   0.0000       2.256503        61.4026 
 503   0.0000       2.259257        61.4775 
 504   0.0000       2.272194        61.8296 
 505   0.0000       2.280005        62.0421 
 506   0.0000       2.286282        62.2129 
 507   0.0000       2.295341        62.4594 
 508   0.0000       2.298410        62.5429 
 509   0.0000       2.320760        63.1511 
 510   0.0000       2.339875        63.6712 
 511   0.0000       2.342727        63.7488 
 512   0.0000       2.353895        64.0527 
 513   0.0000       2.378623        64.7256 
 514   0.0000       2.389801        65.0298 
 515   0.0000       2.395315        65.1798 
 516   0.0000       2.415882        65.7395 
 517   0.0000       2.424851        65.9836 
 518   0.0000       2.447112        66.5893 
 519   0.0000       2.450300        66.6760 
 520   0.0000       2.460341        66.9493 
 521   0.0000       2.478046        67.4311 
 522   0.0000       2.485387        67.6308 
 523   0.0000       2.490972        67.7828 
 524   0.0000       2.515113        68.4397 
 525   0.0000       2.531059        68.8736 
 526   0.0000       2.535990        69.0078 
 527   0.0000       2.545419        69.2644 
 528   0.0000       2.555526        69.5394 
 529   0.0000       2.576889        70.1207 
 530   0.0000       2.579322        70.1869 
 531   0.0000       2.593014        70.5595 
 532   0.0000       2.598224        70.7013 
 533   0.0000       2.616513        71.1989 
 534   0.0000       2.620202        71.2993 
 535   0.0000       2.627469        71.4971 
 536   0.0000       2.643560        71.9349 
 537   0.0000       2.646647        72.0189 
 538   0.0000       2.665048        72.5196 
 539   0.0000       2.680887        72.9506 
 540   0.0000       2.690774        73.2197 
 541   0.0000       2.713467        73.8372 
 542   0.0000       2.730804        74.3090 
 543   0.0000       2.732294        74.3495 
 544   0.0000       2.751428        74.8702 
 545   0.0000       2.775937        75.5371 
 546   0.0000       2.782028        75.7028 
 547   0.0000       2.802160        76.2506 
 548   0.0000       2.812341        76.5277 
 549   0.0000       2.824783        76.8663 
 550   0.0000       2.826343        76.9087 
 551   0.0000       2.839252        77.2600 
 552   0.0000       2.847266        77.4781 
 553   0.0000       2.865972        77.9871 
 554   0.0000       2.868217        78.0482 
 555   0.0000       2.878552        78.3294 
 556   0.0000       2.886797        78.5537 
 557   0.0000       2.892166        78.6998 
 558   0.0000       2.902354        78.9771 
 559   0.0000       2.906258        79.0833 
 560   0.0000       2.926609        79.6371 
 561   0.0000       2.931815        79.7787 
 562   0.0000       2.936391        79.9033 
 563   0.0000       2.942489        80.0692 
 564   0.0000       2.950561        80.2888 
 565   0.0000       2.959585        80.5344 
 566   0.0000       2.970998        80.8450 
 567   0.0000       2.981936        81.1426 
 568   0.0000       2.989128        81.3383 
 569   0.0000       3.001542        81.6761 
 570   0.0000       3.009145        81.8830 
 571   0.0000       3.015832        82.0650 
 572   0.0000       3.026770        82.3626 
 573   0.0000       3.034400        82.5702 
 574   0.0000       3.048658        82.9582 
 575   0.0000       3.051830        83.0445 
 576   0.0000       3.067213        83.4631 
 577   0.0000       3.072238        83.5999 
 578   0.0000       3.080371        83.8211 
 579   0.0000       3.086040        83.9754 
 580   0.0000       3.093115        84.1679 
 581   0.0000       3.100725        84.3750 
 582   0.0000       3.108470        84.5858 
 583   0.0000       3.120654        84.9173 
 584   0.0000       3.130310        85.1801 
 585   0.0000       3.132236        85.2325 
 586   0.0000       3.139092        85.4190 
 587   0.0000       3.148620        85.6783 
 588   0.0000       3.171293        86.2953 
 589   0.0000       3.179222        86.5110 
 590   0.0000       3.182298        86.5947 
 591   0.0000       3.206227        87.2459 
 592   0.0000       3.211514        87.3897 
 593   0.0000       3.221654        87.6657 
 594   0.0000       3.235100        88.0315 
 595   0.0000       3.240761        88.1856 
 596   0.0000       3.247336        88.3645 
 597   0.0000       3.261614        88.7530 
 598   0.0000       3.273071        89.0648 
 599   0.0000       3.278800        89.2207 
 600   0.0000       3.288613        89.4877 
 601   0.0000       3.297552        89.7310 
 602   0.0000       3.311825        90.1194 
 603   0.0000       3.315779        90.2269 
 604   0.0000       3.323208        90.4291 
 605   0.0000       3.333754        90.7161 
 606   0.0000       3.337616        90.8211 
 607   0.0000       3.349098        91.1336 
 608   0.0000       3.358281        91.3835 
 609   0.0000       3.364312        91.5476 
 610   0.0000       3.376502        91.8793 
 611   0.0000       3.390619        92.2634 
 612   0.0000       3.400139        92.5225 
 613   0.0000       3.406719        92.7015 
 614   0.0000       3.412262        92.8524 
 615   0.0000       3.428744        93.3009 
 616   0.0000       3.437132        93.5291 
 617   0.0000       3.444684        93.7346 
 618   0.0000       3.455934        94.0408 
 619   0.0000       3.462287        94.2136 
 620   0.0000       3.474377        94.5426 
 621   0.0000       3.488453        94.9256 
 622   0.0000       3.496851        95.1541 
 623   0.0000       3.507481        95.4434 
 624   0.0000       3.512300        95.5746 
 625   0.0000       3.518733        95.7496 
 626   0.0000       3.527678        95.9930 
 627   0.0000       3.539684        96.3197 
 628   0.0000       3.549981        96.5999 
 629   0.0000       3.554097        96.7119 
 630   0.0000       3.561253        96.9066 
 631   0.0000       3.565852        97.0318 
 632   0.0000       3.576129        97.3114 
 633   0.0000       3.578206        97.3679 
 634   0.0000       3.591557        97.7312 
 635   0.0000       3.592364        97.7532 
 636   0.0000       3.621882        98.5564 
 637   0.0000       3.629098        98.7528 
 638   0.0000       3.630821        98.7997 
 639   0.0000       3.640881        99.0734 
 640   0.0000       3.652055        99.3775 
 641   0.0000       3.656393        99.4955 
 642   0.0000       3.664299        99.7106 
 643   0.0000       3.689753       100.4033 
 644   0.0000       3.692209       100.4701 
 645   0.0000       3.703497       100.7773 
 646   0.0000       3.715576       101.1060 
 647   0.0000       3.732483       101.5660 
 648   0.0000       3.742551       101.8400 
 649   0.0000       3.751365       102.0798 
 650   0.0000       3.760167       102.3193 
 651   0.0000       3.774092       102.6983 
 652   0.0000       3.789298       103.1120 
 653   0.0000       3.809105       103.6510 
 654   0.0000       3.816986       103.8655 
 655   0.0000       3.821666       103.9928 
 656   0.0000       3.831628       104.2639 
 657   0.0000       3.849426       104.7482 
 658   0.0000       3.868552       105.2687 
 659   0.0000       3.888484       105.8110 
 660   0.0000       3.892864       105.9302 
 661   0.0000       3.903843       106.2290 
 662   0.0000       3.915653       106.5503 
 663   0.0000       3.930557       106.9559 
 664   0.0000       3.949896       107.4821 
 665   0.0000       3.963514       107.8527 
 666   0.0000       3.980276       108.3088 
 667   0.0000       3.986104       108.4674 
 668   0.0000       4.001545       108.8876 
 669   0.0000       4.015870       109.2774 
 670   0.0000       4.026579       109.5688 
 671   0.0000       4.036120       109.8284 
 672   0.0000       4.042973       110.0149 
 673   0.0000       4.048537       110.1663 
 674   0.0000       4.053050       110.2891 
 675   0.0000       4.063263       110.5670 
 676   0.0000       4.065926       110.6395 
 677   0.0000       4.071576       110.7932 
 678   0.0000       4.085637       111.1758 
 679   0.0000       4.098955       111.5382 
 680   0.0000       4.116223       112.0081 
 681   0.0000       4.118817       112.0787 
 682   0.0000       4.128036       112.3296 
 683   0.0000       4.131162       112.4146 
 684   0.0000       4.146597       112.8346 
 685   0.0000       4.153010       113.0092 
 686   0.0000       4.158019       113.1455 
 687   0.0000       4.168804       113.4389 
 688   0.0000       4.174561       113.5956 
 689   0.0000       4.176899       113.6592 
 690   0.0000       4.191006       114.0431 
 691   0.0000       4.195222       114.1578 
 692   0.0000       4.212685       114.6330 
 693   0.0000       4.216429       114.7349 
 694   0.0000       4.223540       114.9284 
 695   0.0000       4.227557       115.0377 
 696   0.0000       4.247271       115.5741 
 697   0.0000       4.252301       115.7110 
 698   0.0000       4.257688       115.8576 
 699   0.0000       4.270474       116.2055 
 700   0.0000       4.289612       116.7263 
 701   0.0000       4.298621       116.9714 
 702   0.0000       4.315060       117.4188 
 703   0.0000       4.319619       117.5428 
 704   0.0000       4.335129       117.9649 
 705   0.0000       4.343553       118.1941 
 706   0.0000       4.358389       118.5978 
 707   0.0000       4.362393       118.7068 
 708   0.0000       4.376132       119.0806 
 709   0.0000       4.378573       119.1470 
 710   0.0000       4.402407       119.7956 
 711   0.0000       4.403329       119.8207 
 712   0.0000       4.418938       120.2454 
 713   0.0000       4.419494       120.2605 
 714   0.0000       4.436220       120.7157 
 715   0.0000       4.444859       120.9508 
 716   0.0000       4.466456       121.5384 
 717   0.0000       4.479155       121.8840 
 718   0.0000       4.492767       122.2544 
 719   0.0000       4.529255       123.2473 
 720   0.0000       4.538538       123.4999 
 721   0.0000       4.561586       124.1271 
 722   0.0000       4.572846       124.4335 
 723   0.0000       4.598320       125.1266 
 724   0.0000       4.622045       125.7722 
 725   0.0000       4.641778       126.3092 
 726   0.0000       4.643363       126.3523 
 727   0.0000       4.673973       127.1853 
 728   0.0000       4.701217       127.9266 
 729   0.0000       4.703574       127.9908 
 730   0.0000       4.741774       129.0302 
 731   0.0000       4.761934       129.5788 
 732   0.0000       4.783096       130.1546 
 733   0.0000       4.815834       131.0455 
 734   0.0000       4.826365       131.3321 
 735   0.0000       4.836675       131.6126 
 736   0.0000       4.858860       132.2163 
 737   0.0000       4.861899       132.2990 
 738   0.0000       4.881052       132.8202 
 739   0.0000       4.891498       133.1044 
 740   0.0000       4.895547       133.2146 
 741   0.0000       4.900383       133.3462 
 742   0.0000       4.920744       133.9003 
 743   0.0000       4.932114       134.2097 
 744   0.0000       4.972541       135.3097 
 745   0.0000       4.987510       135.7171 
 746   0.0000       5.026607       136.7809 
 747   0.0000       5.035596       137.0255 
 748   0.0000       5.080383       138.2442 
 749   0.0000       5.114014       139.1594 
 750   0.0000       5.139579       139.8551 
 751   0.0000       5.155639       140.2921 
 752   0.0000       5.180969       140.9813 
 753   0.0000       5.186338       141.1274 
 754   0.0000       5.203773       141.6019 
 755   0.0000       5.220442       142.0554 
 756   0.0000       5.230541       142.3302 
 757   0.0000       5.240176       142.5924 
 758   0.0000       5.247776       142.7993 
 759   0.0000       5.261254       143.1660 
 760   0.0000       5.279311       143.6573 
 761   0.0000       5.284322       143.7937 
 762   0.0000       5.301701       144.2666 
 763   0.0000       5.315106       144.6314 
 764   0.0000       5.333721       145.1379 
 765   0.0000       5.351349       145.6176 
 766   0.0000       5.354952       145.7156 
 767   0.0000       5.379082       146.3723 
 768   0.0000       5.407078       147.1341 
 769   0.0000       5.419976       147.4850 
 770   0.0000       5.431715       147.8045 
 771   0.0000       5.454515       148.4249 
 772   0.0000       5.481259       149.1526 
 773   0.0000       5.493812       149.4942 
 774   0.0000       5.495498       149.5401 
 775   0.0000       5.528021       150.4251 
 776   0.0000       5.532015       150.5338 
 777   0.0000       5.546178       150.9192 
 778   0.0000       5.563524       151.3912 
 779   0.0000       5.564724       151.4238 
 780   0.0000       5.583724       151.9409 
 781   0.0000       5.601888       152.4351 
 782   0.0000       5.610457       152.6683 
 783   0.0000       5.633924       153.3069 
 784   0.0000       5.638867       153.4414 
 785   0.0000       5.659914       154.0141 
 786   0.0000       5.670139       154.2923 
 787   0.0000       5.697941       155.0489 
 788   0.0000       5.726159       155.8167 
 789   0.0000       5.737623       156.1287 
 790   0.0000       5.762348       156.8015 
 791   0.0000       5.770583       157.0256 
 792   0.0000       5.778906       157.2520 
 793   0.0000       5.787060       157.4739 
 794   0.0000       5.812881       158.1765 
 795   0.0000       5.830996       158.6695 
 796   0.0000       5.841715       158.9611 
 797   0.0000       5.853194       159.2735 
 798   0.0000       5.892817       160.3517 
 799   0.0000       5.908380       160.7752 
 800   0.0000       6.015147       163.6805 
 801   0.0000       6.078975       165.4173 
 802   0.0000       6.173957       168.0019 
 803   0.0000       6.257854       170.2849 
 804   0.0000       6.317475       171.9072 
 805   0.0000       6.353679       172.8924 
 806   0.0000       6.445378       175.3876 
 807   0.0000       6.515142       177.2860 
 808   0.0000       6.543707       178.0633 
 809   0.0000       6.559135       178.4831 
 810   0.0000       6.615013       180.0036 
 811   0.0000       6.677622       181.7073 
 812   0.0000       6.707236       182.5132 
 813   0.0000       6.779433       184.4777 
 814   0.0000       6.828094       185.8019 
 815   0.0000       6.857619       186.6053 
 816   0.0000       6.923178       188.3892 
 817   0.0000       6.997066       190.3998 
 818   0.0000       7.022859       191.1017 
 819   0.0000       7.170224       195.1117 
 820   0.0000       7.225197       196.6076 
 821   0.0000       7.231085       196.7678 
 822   0.0000       7.273833       197.9311 
 823   0.0000       7.497829       204.0263 
 824   0.0000       7.588946       206.5057 
 825   0.0000       8.097286       220.3383 
 826   0.0000       8.113991       220.7929 
 827   0.0000       8.127212       221.1527 
 828   0.0000       8.135775       221.3857 
 829   0.0000       8.137619       221.4359 
 830   0.0000       8.146656       221.6818 
 831   0.0000       8.158801       222.0123 
 832   0.0000       8.166453       222.2205 
 833   0.0000       8.186870       222.7761 
 834   0.0000       8.205833       223.2921 
 835   0.0000       8.212106       223.4628 
 836   0.0000       8.225800       223.8354 
 837   0.0000       8.266092       224.9318 
 838   0.0000       8.272351       225.1021 
 839   0.0000       8.301756       225.9023 
 840   0.0000      10.796586       293.7900 
 841   0.0000      10.831435       294.7383 
 842   0.0000      10.880251       296.0667 
 843   0.0000      10.914443       296.9971 
 844   0.0000      10.972228       298.5695 
 845   0.0000      10.981631       298.8254 
 846   0.0000      11.077578       301.4362 
 847   0.0000      11.098443       302.0040 
 848   0.0000      11.127424       302.7926 
 849   0.0000      23.028049       626.6251 
 850   0.0000      23.178286       630.7132 
 851   0.0000      23.426519       637.4680 
 852   0.0000      23.537430       640.4860 
 853   0.0000      23.611988       642.5149 
 854   0.0000      23.683281       644.4548 
 855   0.0000      23.773292       646.9042 
 856   0.0000      23.843913       648.8259 
 857   0.0000      23.914288       650.7409 
 858   0.0000      25.809220       702.3046 
 859   0.0000      25.862690       703.7596 
 860   0.0000      26.328920       716.4463 
 861   0.0000      31.874810       867.3577 
 862   0.0000      32.490536       884.1124 
 863   0.0000      34.031950       926.0564 
 864   0.0000      44.276059      1204.8128 
 865   0.0000      44.403197      1208.2724 
 866   0.0000      44.645758      1214.8728 
 867   0.0000      44.891627      1221.5633 
 868   0.0000     205.434369      5590.1534 

                    ********************************
                    * MULLIKEN POPULATION ANALYSIS *
                    ********************************

-----------------------
MULLIKEN ATOMIC CHARGES
-----------------------
   0 C :   -0.544939
   1 C :    0.770033
   2 C :   -0.589761
   3 H :    0.032568
   4 H :    0.100578
   5 H :    0.125300
   6 C :    2.790971
   7 O :   -0.564297
   8 C :    0.644721
   9 O :   -0.582303
  10 C :    0.152547
  11 O :   -0.553503
  12 C :   -0.191063
  13 H :    0.174694
  14 H :   -0.040912
  15 H :    0.105731
  16 C :   -0.202489
  17 H :    0.042309
  18 H :    0.068188
  19 H :    0.068951
  20 C :   -0.614994
  21 H :    0.055512
  22 H :    0.086119
  23 H :    0.084625
  24 Au:    0.026483
  25 Cl:   -0.529890
  26 Cl:   -0.403876
  27 Cl:   -0.511305
Sum of atomic charges:   -0.0000000

--------------------------------
MULLIKEN REDUCED ORBITAL CHARGES
--------------------------------
  0 C s       :     4.553229  s :     4.553229
      pz      :     1.080195  p :     2.432293
      px      :     0.608856
      py      :     0.743241
      dz2     :    -0.034841  d :    -0.449910
      dxz     :    -0.068047
      dyz     :     0.008390
      dx2y2   :    -0.083882
      dxy     :    -0.271531
      f0      :     0.001544  f :     0.009327
      f+1     :     0.000568
      f-1     :     0.001244
      f+2     :     0.000811
      f-2     :     0.001441
      f+3     :     0.001918
      f-3     :     0.001802
  1 C s       :     3.270358  s :     3.270358
      pz      :     1.195526  p :     2.176726
      px      :     0.204615
      py      :     0.776585
      dz2     :     0.008735  d :    -0.227948
      dxz     :    -0.052863
      dyz     :     0.044143
      dx2y2   :    -0.258103
      dxy     :     0.030139
      f0      :     0.001695  f :     0.010831
      f+1     :     0.000658
      f-1     :     0.000974
      f+2     :     0.000462
      f-2     :     0.002065
      f+3     :     0.002397
      f-3     :     0.002579
  2 C s       :     3.476386  s :     3.476386
      pz      :     0.981353  p :     3.020213
      px      :     1.019433
      py      :     1.019427
      dz2     :     0.015465  d :     0.089129
      dxz     :     0.007442
      dyz     :     0.023243
      dx2y2   :     0.019229
      dxy     :     0.023751
      f0      :     0.000267  f :     0.004034
      f+1     :     0.000584
      f-1     :     0.000554
      f+2     :     0.000601
      f-2     :     0.000462
      f+3     :     0.000747
      f-3     :     0.000819
  3 H s       :     0.950454  s :     0.950454
      pz      :    -0.013376  p :     0.015517
      px      :     0.028139
      py      :     0.000753
      dz2     :     0.000096  d :     0.001461
      dxz     :     0.000464
      dyz     :     0.000115
      dx2y2   :     0.000467
      dxy     :     0.000319
  4 H s       :     0.883786  s :     0.883786
      pz      :     0.006060  p :     0.014198
      px      :    -0.007110
      py      :     0.015248
      dz2     :     0.000446  d :     0.001439
      dxz     :     0.000167
      dyz     :     0.000435
      dx2y2   :     0.000183
      dxy     :     0.000208
  5 H s       :     0.869186  s :     0.869186
      pz      :     0.010597  p :     0.004068
      px      :    -0.013679
      py      :     0.007150
      dz2     :     0.000503  d :     0.001445
      dxz     :     0.000238
      dyz     :     0.000218
      dx2y2   :     0.000312
      dxy     :     0.000174
  6 C s       :     2.008563  s :     2.008563
      pz      :     0.310223  p :     1.149161
      px      :     0.285245
      py      :     0.553692
      dz2     :     0.133257  d :     0.037184
      dxz     :    -0.016092
      dyz     :    -0.080508
      dx2y2   :    -0.027668
      dxy     :     0.028196
      f0      :     0.001799  f :     0.014121
      f+1     :     0.002572
      f-1     :     0.001454
      f+2     :     0.001928
      f-2     :     0.002170
      f+3     :     0.002216
      f-3     :     0.001982
  7 O s       :     4.056052  s :     4.056052
      pz      :     1.658613  p :     4.461874
      px      :     1.350006
      py      :     1.453255
      dz2     :     0.009395  d :     0.044290
      dxz     :     0.005534
      dyz     :     0.011719
      dx2y2   :     0.012268
      dxy     :     0.005373
      f0      :     0.000225  f :     0.002082
      f+1     :     0.000214
      f-1     :     0.000235
      f+2     :     0.000322
      f-2     :     0.000262
      f+3     :     0.000406
      f-3     :     0.000419
  8 C s       :     3.097425  s :     3.097425
      pz      :     0.699847  p :     1.933138
      px      :     0.656497
      py      :     0.576794
      dz2     :     0.053139  d :     0.299031
      dxz     :     0.043355
      dyz     :     0.027559
      dx2y2   :     0.107418
      dxy     :     0.067560
      f0      :     0.001687  f :     0.025686
      f+1     :     0.002815
      f-1     :     0.003243
      f+2     :     0.004029
      f-2     :     0.003431
      f+3     :     0.003989
      f-3     :     0.006493
  9 O s       :     4.078010  s :     4.078010
      pz      :     1.410278  p :     4.465144
      px      :     1.543256
      py      :     1.511609
      dz2     :     0.010666  d :     0.037296
      dxz     :     0.009706
      dyz     :     0.005629
      dx2y2   :     0.003307
      dxy     :     0.007987
      f0      :     0.000126  f :     0.001854
      f+1     :     0.000212
      f-1     :     0.000362
      f+2     :     0.000306
      f-2     :     0.000305
      f+3     :     0.000255
      f-3     :     0.000288
 10 C s       :     3.490947  s :     3.490947
      pz      :     0.669842  p :     2.085812
      px      :     0.701248
      py      :     0.714722
      dz2     :     0.021034  d :     0.252591
      dxz     :     0.062847
      dyz     :     0.137491
      dx2y2   :     0.029338
      dxy     :     0.001881
      f0      :     0.002278  f :     0.018102
      f+1     :     0.002470
      f-1     :     0.004233
      f+2     :     0.001904
      f-2     :     0.002253
      f+3     :     0.001941
      f-3     :     0.003024
 11 O s       :     4.105398  s :     4.105398
      pz      :     1.758094  p :     4.405754
      px      :     1.340320
      py      :     1.307340
      dz2     :     0.004455  d :     0.040453
      dxz     :     0.005049
      dyz     :     0.006932
      dx2y2   :     0.014933
      dxy     :     0.009084
      f0      :     0.000191  f :     0.001898
      f+1     :     0.000147
      f-1     :     0.000366
      f+2     :     0.000232
      f-2     :     0.000281
      f+3     :     0.000206
      f-3     :     0.000475
 12 C s       :     3.159521  s :     3.159521
      pz      :     0.959549  p :     2.945008
      px      :     0.963101
      py      :     1.022358
      dz2     :     0.008346  d :     0.082756
      dxz     :     0.013640
      dyz     :     0.015855
      dx2y2   :     0.022370
      dxy     :     0.022546
      f0      :     0.001002  f :     0.003778
      f+1     :     0.000544
      f-1     :     0.000745
      f+2     :     0.000408
      f-2     :     0.000450
      f+3     :     0.000377
      f-3     :     0.000251
 13 H s       :     0.861653  s :     0.861653
      pz      :    -0.002617  p :    -0.037899
      px      :    -0.042524
      py      :     0.007241
      dz2     :     0.000117  d :     0.001552
      dxz     :     0.000048
      dyz     :     0.000619
      dx2y2   :     0.000285
      dxy     :     0.000483
 14 H s       :     0.992908  s :     0.992908
      pz      :     0.008669  p :     0.046434
      px      :     0.015611
      py      :     0.022153
      dz2     :     0.000485  d :     0.001570
      dxz     :     0.000214
      dyz     :     0.000210
      dx2y2   :     0.000486
      dxy     :     0.000175
 15 H s       :     0.878377  s :     0.878377
      pz      :     0.007681  p :     0.014378
      px      :     0.011628
      py      :    -0.004932
      dz2     :     0.000246  d :     0.001514
      dxz     :     0.000479
      dyz     :     0.000049
      dx2y2   :     0.000192
      dxy     :     0.000548
 16 C s       :     3.194318  s :     3.194318
      pz      :     1.014716  p :     2.963068
      px      :     0.981862
[...]
      dz2     :     0.070945  d :     0.496470
      dxz     :     0.080342
      dyz     :     0.110826
      dx2y2   :     0.103296
      dxy     :     0.131060
      f0      :     0.002878  f :     0.034177
      f+1     :     0.005025
      f-1     :     0.005224
      f+2     :     0.004504
      f-2     :     0.003971
      f+3     :     0.005333
      f-3     :     0.007243
  3 H s       :     0.687622  s :     0.687622
      pz      :     0.077323  p :     0.287769
      px      :     0.129498
      py      :     0.080948
      dz2     :     0.003044  d :     0.029470
      dxz     :     0.008046
      dyz     :     0.001910
      dx2y2   :     0.008174
      dxy     :     0.008295
  4 H s       :     0.689381  s :     0.689381
      pz      :     0.114131  p :     0.285074
      px      :     0.095896
      py      :     0.075047
      dz2     :     0.009165  d :     0.029387
      dxz     :     0.008121
      dyz     :     0.005822
      dx2y2   :     0.003241
      dxy     :     0.003038
  5 H s       :     0.689068  s :     0.689068
      pz      :     0.119480  p :     0.297359
      px      :     0.089123
      py      :     0.088756
      dz2     :     0.008002  d :     0.029427
      dxz     :     0.006529
      dyz     :     0.006696
      dx2y2   :     0.004298
      dxy     :     0.003901
  6 C s       :     2.584403  s :     2.584403
      pz      :     0.860954  p :     2.438857
      px      :     0.719844
      py      :     0.858058
      dz2     :     0.246422  d :     1.224179
      dxz     :     0.261904
      dyz     :     0.246658
      dx2y2   :     0.225519
      dxy     :     0.243677
      f0      :     0.012517  f :     0.092819
      f+1     :     0.015418
      f-1     :     0.008060
      f+2     :     0.015141
      f-2     :     0.013458
      f+3     :     0.015719
      f-3     :     0.012507
  7 O s       :     3.166410  s :     3.166410
      pz      :     1.481626  p :     4.209905
      px      :     1.312781
      py      :     1.415499
      dz2     :     0.078714  d :     0.516855
      dxz     :     0.090913
      dyz     :     0.083550
      dx2y2   :     0.118359
      dxy     :     0.145319
      f0      :     0.000490  f :     0.007256
      f+1     :     0.000846
      f-1     :     0.000695
      f+2     :     0.001469
      f-2     :     0.000800
      f+3     :     0.001355
      f-3     :     0.001601
  8 C s       :     2.616130  s :     2.616130
      pz      :     0.706013  p :     2.343679
      px      :     0.852814
      py      :     0.784852
      dz2     :     0.199801  d :     1.317901
      dxz     :     0.211574
      dyz     :     0.239844
      dx2y2   :     0.361199
      dxy     :     0.305482
      f0      :     0.013397  f :     0.161546
      f+1     :     0.015760
      f-1     :     0.016827
      f+2     :     0.026393
      f-2     :     0.022477
      f+3     :     0.026239
      f-3     :     0.040452
  9 O s       :     3.281708  s :     3.281708
      pz      :     1.350099  p :     4.233386
      px      :     1.419082
      py      :     1.464205
      dz2     :     0.045287  d :     0.313786
      dxz     :     0.058195
      dyz     :     0.053303
      dx2y2   :     0.081099
      dxy     :     0.075903
      f0      :     0.000547  f :     0.006594
      f+1     :     0.000480
      f-1     :     0.000882
      f+2     :     0.001191
      f-2     :     0.001491
      f+3     :     0.000909
      f-3     :     0.001095
 10 C s       :     2.647617  s :     2.647617
      pz      :     0.874121  p :     2.377180
      px      :     0.691267
      py      :     0.811792
      dz2     :     0.267876  d :     1.191452
      dxz     :     0.215305
      dyz     :     0.336842
      dx2y2   :     0.172661
      dxy     :     0.198769
      f0      :     0.013465  f :     0.109567
      f+1     :     0.015022
      f-1     :     0.026304
      f+2     :     0.011631
      f-2     :     0.014445
      f+3     :     0.013810
      f-3     :     0.014890
 11 O s       :     3.322312  s :     3.322312
      pz      :     1.561938  p :     4.257038
      px      :     1.280404
      py      :     1.414695
      dz2     :     0.047648  d :     0.256136
      dxz     :     0.033083
      dyz     :     0.072385
      dx2y2   :     0.040109
      dxy     :     0.062911
      f0      :     0.000705  f :     0.006689
      f+1     :     0.000480
      f-1     :     0.001283
      f+2     :     0.000668
      f-2     :     0.001218
      f+3     :     0.001367
      f-3     :     0.000969
 12 C s       :     2.622324  s :     2.622324
      pz      :     0.852313  p :     2.672812
      px      :     0.907019
      py      :     0.913480
      dz2     :     0.125319  d :     0.454883
      dxz     :     0.096014
      dyz     :     0.094279
      dx2y2   :     0.080673
      dxy     :     0.058598
      f0      :     0.007743  f :     0.031899
      f+1     :     0.003599
      f-1     :     0.005966
      f+2     :     0.003332
      f-2     :     0.005130
      f+3     :     0.003662
      f-3     :     0.002467
 13 H s       :     0.671419  s :     0.671419
      pz      :     0.076139  p :     0.344966
      px      :     0.116444
      py      :     0.152383
      dz2     :     0.002933  d :     0.029557
      dxz     :     0.000569
      dyz     :     0.008591
      dx2y2   :     0.008448
      dxy     :     0.009015
 14 H s       :     0.688675  s :     0.688675
      pz      :     0.083431  p :     0.272889
      px      :     0.095707
      py      :     0.093751
      dz2     :     0.006056  d :     0.029971
      dxz     :     0.005744
      dyz     :     0.005494
      dx2y2   :     0.007038
      dxy     :     0.005639
 15 H s       :     0.682173  s :     0.682173
      pz      :     0.078374  p :     0.284159
      px      :     0.127878
      py      :     0.077907
      dz2     :     0.003877  d :     0.029659
      dxz     :     0.008834
      dyz     :     0.000875
      dx2y2   :     0.007239
      dxy     :     0.008834
 16 C s       :     2.623350  s :     2.623350
      pz      :     0.907414  p :     2.674087
      px      :     0.846750
      py      :     0.919923
      dz2     :     0.098935  d :     0.402868
      dxz     :     0.073544
      dyz     :     0.033578
      dx2y2   :     0.086730
      dxy     :     0.110080
      f0      :     0.006018  f :     0.032039
      f+1     :     0.003499
      f-1     :     0.001358
      f+2     :     0.005769
      f-2     :     0.004996
      f+3     :     0.006152
      f-3     :     0.004247
 17 H s       :     0.693011  s :     0.693011
      pz      :     0.077600  p :     0.271211
      px      :     0.072308
      py      :     0.121303
      dz2     :     0.003826  d :     0.029754
      dxz     :     0.001517
      dyz     :     0.007886
      dx2y2   :     0.008058
      dxy     :     0.008466
 18 H s       :     0.687132  s :     0.687132
      pz      :     0.128879  p :     0.272403
      px      :     0.067420
      py      :     0.076104
      dz2     :     0.010643  d :     0.029481
      dxz     :     0.009048
      dyz     :     0.009522
      dx2y2   :     0.000188
      dxy     :     0.000080
 19 H s       :     0.687736  s :     0.687736
      pz      :     0.082881  p :     0.271401
      px      :     0.085223
      py      :     0.103296
      dz2     :     0.004859  d :     0.029452
      dxz     :     0.004307
      dyz     :     0.005314
      dx2y2   :     0.007978
      dxy     :     0.006994
 20 C s       :     2.610323  s :     2.610323
      pz      :     0.840028  p :     2.632022
      px      :     0.910553
      py      :     0.881441
      dz2     :     0.109074  d :     0.494841
      dxz     :     0.104565
      dyz     :     0.115316
      dx2y2   :     0.066975
      dxy     :     0.098911
      f0      :     0.006376  f :     0.032326
      f+1     :     0.003866
      f-1     :     0.007014
      f+2     :     0.004098
      f-2     :     0.004624
      f+3     :     0.004862
      f-3     :     0.001485
 21 H s       :     0.685198  s :     0.685198
      pz      :     0.070481  p :     0.270954
      px      :     0.090056
      py      :     0.110418
      dz2     :     0.002862  d :     0.029625
      dxz     :     0.002437
      dyz     :     0.006735
      dx2y2   :     0.009158
      dxy     :     0.008433
 22 H s       :     0.667316  s :     0.667316
      pz      :     0.081784  p :     0.324805
      px      :     0.160980
      py      :     0.082041
      dz2     :     0.004066  d :     0.029859
      dxz     :     0.008574
      dyz     :     0.001871
      dx2y2   :     0.006963
      dxy     :     0.008385
 23 H s       :     0.683518  s :     0.683518
      pz      :     0.089229  p :     0.275954
      px      :     0.087800
      py      :     0.098924
      dz2     :     0.007111  d :     0.029613
      dxz     :     0.005579
      dyz     :     0.006496
      dx2y2   :     0.005392
      dxy     :     0.005034
 24 Aus       :     2.258667  s :     2.258667
      pz      :     2.353744  p :     6.816863
      px      :     2.275736
      py      :     2.187383
      dz2     :     1.802026  d :     9.530367
      dxz     :     1.994036
      dyz     :     1.928765
      dx2y2   :     1.913586
      dxy     :     1.891954
      f0      :     0.028952  f :     0.125071
      f+1     :     0.019790
      f-1     :     0.027847
      f+2     :     0.010386
      f-2     :     0.011378
      f+3     :     0.009050
      f-3     :     0.017668
      g0      :     0.000243  g :     0.001510
      g+1     :     0.000185
      g-1     :     0.000282
      g+2     :     0.000145
      g-2     :     0.000164
      g+3     :     0.000061
      g-3     :     0.000114
      g+4     :     0.000149
      g-4     :     0.000166
 25 Cls       :     5.685648  s :     5.685648
      pz      :     3.499360  p :    11.108894
      px      :     3.834405
      py      :     3.775129
      dz2     :     0.057734  d :     0.203693
      dxz     :     0.050350
      dyz     :     0.047779
      dx2y2   :     0.016320
      dxy     :     0.031510
      f0      :     0.001799  f :     0.006105
      f+1     :     0.001162
      f-1     :     0.001710
      f+2     :     0.000637
      f-2     :     0.000638
      f+3     :     0.000069
      f-3     :     0.000089
 26 Cls       :     5.712326  s :     5.712326
      pz      :     3.869181  p :    11.190445
      px      :     3.524913
      py      :     3.796351
      dz2     :     0.030297  d :     0.197884
      dxz     :     0.058959
      dyz     :     0.019800
      dx2y2   :     0.039325
      dxy     :     0.049502
      f0      :     0.000645  f :     0.006323
      f+1     :     0.000956
      f-1     :     0.000273
      f+2     :     0.000699
      f-2     :     0.000766
      f+3     :     0.001395
      f-3     :     0.001590
 27 Cls       :     5.689972  s :     5.689972
      pz      :     3.478415  p :    11.115158
      px      :     3.835180
      py      :     3.801563
      dz2     :     0.060216  d :     0.195925
      dxz     :     0.058137
      dyz     :     0.045609
      dx2y2   :     0.014867
      dxy     :     0.017094
      f0      :     0.001960  f :     0.006280
      f+1     :     0.001303
      f-1     :     0.001807
      f+2     :     0.000546
      f-2     :     0.000553
      f+3     :     0.000056
      f-3     :     0.000055


                      *****************************
                      * MAYER POPULATION ANALYSIS *
                      *****************************

  NA   - Mulliken gross atomic population
  ZA   - Total nuclear charge
  QA   - Mulliken gross atomic charge
  VA   - Mayer's total valence
  BVA  - Mayer's bonded valence
  FA   - Mayer's free valence

  ATOM       NA         ZA         QA         VA         BVA        FA
  0 C      6.5449     6.0000    -0.5449     3.5876     3.5876    -0.0000
  1 C      5.2300     6.0000     0.7700    -2.9455    -2.9455     0.0000
  2 C      6.5898     6.0000    -0.5898     3.7959     3.7959    -0.0000
  3 H      0.9674     1.0000     0.0326     1.0057     1.0057    -0.0000
  4 H      0.8994     1.0000     0.1006     0.9742     0.9742    -0.0000
  5 H      0.8747     1.0000     0.1253     0.9644     0.9644    -0.0000
  6 C      3.2090     6.0000     2.7910     0.3519     0.3519     0.0000
  7 O      8.5643     8.0000    -0.5643     1.6661     1.6661    -0.0000
  8 C      5.3553     6.0000     0.6447     3.7605     3.7605    -0.0000
  9 O      8.5823     8.0000    -0.5823     1.7763     1.7763    -0.0000
 10 C      5.8475     6.0000     0.1525     3.0980     3.0980     0.0000
 11 O      8.5535     8.0000    -0.5535     1.7420     1.7420     0.0000
 12 C      6.1911     6.0000    -0.1911     4.3813     4.3813     0.0000
 13 H      0.8253     1.0000     0.1747     0.8894     0.8894     0.0000
 14 H      1.0409     1.0000    -0.0409     1.0735     1.0735     0.0000
 15 H      0.8943     1.0000     0.1057     0.9417     0.9417     0.0000
 16 C      6.2025     6.0000    -0.2025     3.8513     3.8513    -0.0000
 17 H      0.9577     1.0000     0.0423     1.0268     1.0268    -0.0000
 18 H      0.9318     1.0000     0.0682     1.0018     1.0018    -0.0000
 19 H      0.9310     1.0000     0.0690     1.0009     1.0009    -0.0000
 20 C      6.6150     6.0000    -0.6150     3.9502     3.9502     0.0000
 21 H      0.9445     1.0000     0.0555     0.9926     0.9926     0.0000
 22 H      0.9139     1.0000     0.0861     1.0265     1.0265     0.0000
 23 H      0.9154     1.0000     0.0846     0.9444     0.9444     0.0000
 24 Au    18.9735    19.0000     0.0265     2.7957     2.7957    -0.0000
 25 Cl    17.5299    17.0000    -0.5299     0.8047     0.8047     0.0000
 26 Cl    17.4039    17.0000    -0.4039     0.9066     0.9066     0.0000
 27 Cl    17.5113    17.0000    -0.5113     0.8164     0.8164    -0.0000

  Mayer bond orders larger than 0.100000
B(  0-C ,  1-C ) :  -0.5847 B(  0-C ,  2-C ) :   1.3010 B(  0-C ,  3-H ) :   0.1258 
B(  0-C ,  6-C ) :  -0.4388 B(  0-C ,  9-O ) :   0.1988 B(  0-C , 24-Au) :   1.7170 
B(  0-C , 25-Cl) :   0.5803 B(  0-C , 27-Cl) :   0.7589 B(  1-C ,  2-C ) :  -0.5200 
B(  1-C ,  3-H ) :  -0.1957 B(  1-C ,  6-C ) :   0.5253 B(  1-C ,  8-C ) :  -0.1006 
B(  1-C , 10-C ) :   0.6098 B(  1-C , 12-C ) :   0.1693 B(  1-C , 20-C ) :   0.3293 
B(  1-C , 24-Au) :  -1.3950 B(  1-C , 25-Cl) :  -0.8738 B(  1-C , 27-Cl) :  -1.1183 
B(  2-C ,  3-H ) :   1.0599 B(  2-C ,  4-H ) :   0.9270 B(  2-C ,  5-H ) :   0.9142 
B(  6-C , 10-C ) :  -0.1644 B(  6-C , 11-O ) :   0.1264 B(  6-C , 12-C ) :  -0.1056 
B(  6-C , 20-C ) :   0.7313 B(  6-C , 24-Au) :  -0.3185 B(  7-O ,  8-C ) :   1.1363 
B(  7-O ,  9-O ) :   0.1404 B(  7-O , 10-C ) :   0.1967 B(  7-O , 20-C ) :   0.1698 
B(  8-C ,  9-O ) :   1.4616 B(  8-C , 16-C ) :   1.1134 B( 10-C , 11-O ) :   1.2913 
B( 10-C , 12-C ) :   1.3744 B( 11-O , 12-C ) :   0.1079 B( 12-C , 13-H ) :   0.8927 
B( 12-C , 14-H ) :   1.0374 B( 12-C , 15-H ) :   0.8865 B( 16-C , 17-H ) :   1.0172 
B( 16-C , 18-H ) :   0.9332 B( 16-C , 19-H ) :   0.9265 B( 20-C , 21-H ) :   1.0018 
B( 20-C , 22-H ) :   0.9172 B( 20-C , 23-H ) :   0.9370 B( 20-C , 27-Cl) :  -0.1147 
B( 24-Au, 25-Cl) :   1.0159 B( 24-Au, 26-Cl) :   0.6973 B( 24-Au, 27-Cl) :   0.9891 
B( 25-Cl, 27-Cl) :   0.1590 

-------
TIMINGS
-------

Total SCF time: 0 days 0 hours 0 min 26 sec 

Total time                  ....      26.216 sec
Sum of individual times     ....      25.283 sec  ( 96.4%)

Fock matrix formation       ....      18.107 sec  ( 69.1%)
  Split-RI-J                ....       6.190 sec  ( 34.2% of F)
  XC integration            ....      11.106 sec  ( 61.3% of F)
    Basis function eval.    ....       0.943 sec  (  8.5% of XC)
    Density eval.           ....       3.609 sec  ( 32.5% of XC)
    XC-Functional eval.     ....       0.113 sec  (  1.0% of XC)
    XC-Potential eval.      ....       4.961 sec  ( 44.7% of XC)
Diagonalization             ....       2.831 sec  ( 10.8%)
Density matrix formation    ....       0.122 sec  (  0.5%)
Population analysis         ....       0.152 sec  (  0.6%)
Initial guess               ....       1.879 sec  (  7.2%)
Orbital Transformation      ....       0.000 sec  (  0.0%)
Orbital Orthonormalization  ....       0.000 sec  (  0.0%)
DIIS solution               ....       1.462 sec  (  5.6%)
Grid generation             ....       0.731 sec  (  2.8%)


-------------------------------------------------------------------------------
                          DFT DISPERSION CORRECTION                            
                                                                               
                              DFTD3 V3.1  Rev 1                                
                          USING Becke-Johnson damping                          
-------------------------------------------------------------------------------
The TPSS functional is recognized
Active option DFTDOPT                   ...         4   

molecular C6(AA) [au] = 14167.897186 


            DFT-D V3
 parameters
 s6 scaling factor         :     1.0000 
 a1 scaling factor         :     0.4535 
 s8 scaling factor         :     1.9435 
 a2 scaling factor         :     4.4752 
 ad hoc parameters k1-k3   :    16.0000     1.3333    -4.0000 

 Edisp/kcal,au: -34.177978221378  -0.054466069419 
 E6   /kcal   : -15.882098503 
 E8   /kcal   : -18.295879719 
 % E8         :  53.531193683 

-------------------------   ----------------
Dispersion correction           -0.054466069
-------------------------   ----------------


-------------------------   --------------------
FINAL SINGLE POINT ENERGY     -2092.661607465462
-------------------------   --------------------


                            ***************************************
                            *     ORCA property calculations      *
                            ***************************************

                                    ---------------------
                                    Active property flags
                                    ---------------------
   (+) Dipole Moment


------------------------------------------------------------------------------
                       ORCA ELECTRIC PROPERTIES CALCULATION
------------------------------------------------------------------------------

Dipole Moment Calculation                       ... on
Quadrupole Moment Calculation                   ... off
Polarizability Calculation                      ... off
GBWName                                         ... TMB28_T1.gbw
Electron density file                           ... TMB28_T1.scfp
The origin for moment calculation is the CENTER OF MASS  = ( 0.348205, -0.021782 -0.008003)

-------------
DIPOLE MOMENT
-------------
                                X             Y             Z
Electronic contribution:    196.19016     -27.57282      -6.37171
Nuclear contribution   :   -200.70985      26.65253       6.49371
                        -----------------------------------------
Total Dipole Moment    :     -4.51969      -0.92029       0.12200
                        -----------------------------------------
Magnitude (a.u.)       :      4.61404
Magnitude (Debye)      :     11.72796



--------------------
Rotational spectrum 
--------------------
 
Rotational constants in cm-1:     0.016870     0.006757     0.006678 
Rotational constants in MHz :   505.750873   202.581775   200.209050 

 Dipole components along the rotational axes: 
x,y,z [a.u.] :    -4.516534    -0.872748    -0.358624 
x,y,z [Debye]:   -11.480118    -2.218350    -0.911549 

 

Timings for individual modules:

Sum of individual times         ...       30.224 sec (=   0.504 min)
GTO integral calculation        ...        3.667 sec (=   0.061 min)  12.1 %
SCF iterations                  ...       26.557 sec (=   0.443 min)  87.9 %
                             ****ORCA TERMINATED NORMALLY****
TOTAL RUN TIME: 0 days 0 hours 0 minutes 30 seconds 872 msec
