
                                 *****************
                                 * O   R   C   A *
                                 *****************

           --- An Ab Initio, DFT and Semiempirical electronic structure package ---

                  #######################################################
                  #                        -***-                        #
                  #          Department of theory and spectroscopy      #
                  #               Directorship: Frank Neese             #
                  #        Max Planck Institute fuer Kohlenforschung    #
                  #                Kaiser Wilhelm Platz 1               #
                  #                 D-45470 Muelheim/Ruhr               #
                  #                      Germany                        #
                  #                                                     #
                  #                  All rights reserved                #
                  #                        -***-                        #
                  #######################################################


                         Program Version 4.2.0 -  RELEASE  -


 With contributions from (in alphabetic order):
   Daniel Aravena         : Magnetic Suceptibility
   Michael Atanasov       : Ab Initio Ligand Field Theory (pilot matlab implementation)
   Alexander A. Auer      : GIAO ZORA, VPT2
   Ute Becker             : Parallelization
   Giovanni Bistoni       : ED, misc. LED, open-shell LED, HFLED
   Martin Brehm           : Molecular dynamics
   Dmytro Bykov           : SCF Hessian
   Vijay G. Chilkuri      : MRCI spin determinant printing, contributions to CSF-ICE
   Dipayan Datta          : RHF DLPNO-CCSD density
   Achintya Kumar Dutta   : EOM-CC, STEOM-CC
   Dmitry Ganyushin       : Spin-Orbit,Spin-Spin,Magnetic field MRCI
   Miquel Garcia          : C-PCM Hessian, Gaussian charge scheme
   Yang Guo               : DLPNO-NEVPT2, CIM, IAO-localization
   Andreas Hansen         : Spin unrestricted coupled pair/coupled cluster methods
   Benjamin Helmich-Paris : CASSCF linear response (MC-RPA)
   Lee Huntington         : MR-EOM, pCC
   Robert Izsak           : Overlap fitted RIJCOSX, COSX-SCS-MP3, EOM
   Christian Kollmar      : KDIIS, OOCD, Brueckner-CCSD(T), CCSD density
   Simone Kossmann        : Meta GGA functionals, TD-DFT gradient, OOMP2, MP2 Hessian
   Martin Krupicka        : AUTO-CI
   Lucas Lang             : DCDCAS
   Dagmar Lenk            : GEPOL surface, SMD
   Dimitrios Liakos       : Extrapolation schemes; Compound Job, initial MDCI parallelization
   Dimitrios Manganas     : Further ROCIS development; embedding schemes
   Dimitrios Pantazis     : SARC Basis sets
   Taras Petrenko         : DFT Hessian,TD-DFT gradient, ASA, ECA, R-Raman, ABS, FL, XAS/XES, NRVS
   Peter Pinski           : DLPNO-MP2, DLPNO-MP2 Gradient
   Christoph Reimann      : Effective Core Potentials
   Marius Retegan         : Local ZFS, SOC
   Christoph Riplinger    : Optimizer, TS searches, QM/MM, DLPNO-CCSD(T), (RO)-DLPNO pert. Triples
   Tobias Risthaus        : Range-separated hybrids, TD-DFT gradient, RPA, STAB
   Michael Roemelt        : Original ROCIS implementation
   Masaaki Saitow         : Open-shell DLPNO-CCSD energy and density
   Barbara Sandhoefer     : DKH picture change effects
   Avijit Sen             : IP-ROCIS
   Kantharuban Sivalingam : CASSCF convergence, NEVPT2, FIC-MRCI
   Bernardo de Souza      : ESD, SOC TD-DFT
   Georgi Stoychev        : AutoAux, RI-MP2 NMR
   Willem Van den Heuvel  : Paramagnetic NMR
   Boris Wezisla          : Elementary symmetry handling
   Frank Wennmohs         : Technical directorship


 We gratefully acknowledge several colleagues who have allowed us to
 interface, adapt or use parts of their codes:
   Stefan Grimme, W. Hujo, H. Kruse,             : VdW corrections, initial TS optimization,
                  C. Bannwarth                     DFT functionals, gCP, sTDA/sTD-DF
   Ed Valeev, F. Pavosevic, A. Kumar             : LibInt (2-el integral package), F12 methods
   Garnet Chan, S. Sharma, J. Yang, R. Olivares  : DMRG
   Ulf Ekstrom                                   : XCFun DFT Library
   Mihaly Kallay                                 : mrcc  (arbitrary order and MRCC methods)
   Andreas Klamt, Michael Diedenhofen            : otool_cosmo (COSMO solvation model)
   Jiri Pittner, Ondrej Demel                    : Mk-CCSD
   Frank Weinhold                                : gennbo (NPA and NBO analysis)
   Christopher J. Cramer and Donald G. Truhlar   : smd solvation model
   Lars Goerigk                                  : TD-DFT with DH, B97 family of functionals
   V. Asgeirsson, H. Jonsson                     : NEB implementation
   FAccTs GmbH                                   : IRC, NEB, NEB-TS, Multilevel, MM, QM/MM, CI optimization
   S Lehtola, MJT Oliveira, MAL Marques          : LibXC Library


 Your calculation uses the libint2 library for the computation of 2-el integrals
 For citations please refer to: http://libint.valeyev.net

 Your ORCA version has been built with support for libXC version: 4.2.3
 For citations please refer to: https://tddft.org/programs/libxc/

 This ORCA versions uses:
   CBLAS   interface :  Fast vector & matrix operations
   LAPACKE interface :  Fast linear algebra routines
   SCALAPACK package :  Parallel linear algebra routines


Your calculation utilizes the atom-pairwise dispersion correction
with the Becke-Johnson damping scheme (D3BJ)
Cite in your paper:
S.Grimme, S.Ehrlich, L.Goerigk, J Comput Chem, (2011), 32, 1456–1465 
S.Grimme, J.Antony, S.Ehrlich and H.Krieg, J.Chem.Phys., 132, (2010), 154104 
   

----- Orbital basis set information -----
Your calculation utilizes the basis: def2-TZVPPD
   F. Weigend and R. Ahlrichs, Phys. Chem. Chem. Phys. 7, 3297 (2005).
   D. Rappoport and F. Furche, J. Chem. Phys. 133 134105 (2010).

----- AuxJ basis set information -----
Your calculation utilizes the auxiliary basis: def2/J
   F. Weigend, Phys. Chem. Chem. Phys. 8, 1057 (2006).

cite the ECPs for Re [Def2-ECP] as follows:
Ce-Yb(ecp-28): M. Dolg, H. Stoll, H.Preuss, J. Chem. Phys., 1989, 90, 1730-1734.
Y-Cd(ecp-28), Hf-Hg(ecp-46): D. Andrae,U. Haeussermann, M. Dolg, H. Stoll, H. Preuss, Theor. Chim. Acta, 1990, 77, 123-141.
In-Sb(ecp-28), Tl-Bi(ecp-46): B. Metz, H. Stoll, M. Dolg, J. Chem. Phys., 2000, 113, 2563-2569.
Te-Xe(ecp-28), Po-Rn(ecp-46): K. A. Peterson, D. Figgen, E. Goll, H. Stoll, M. Dolg, J. Chem. Phys., 2003, 119, 11113-11123.
Rb(ecp-28), Cs(ecp-46): T. Leininger, A. Nicklass, W. Kuechle, H. Stoll, M. Dolg, A. Bergner, Chem. Phys. Lett., 1996, 255, 274-280.
Sr(ecp-28), Ba(ecp-46): M. Kaupp, P. V. Schleyer, H. Stoll and H. Preuss, J. Chem. Phys., 1991, 94, 1360-1366.
La(ecp-46): M. Dolg, H. Stoll, A. Savin, H. Preuss, Theor. Chim. Acta, 1989, 75, 173-194.
Lu(ecp-28): X. Cao, M. Dolg, J. Chem. Phys., 2001, 115, 7348-7355.

ECP parameters for Re [Def2-ECP] have been obtained from:
TURBOMOLE (7.0.2)

================================================================================
                                        WARNINGS
                       Please study these warnings very carefully!
================================================================================


INFO   : the flag for use of LIBINT has been found!

================================================================================
                                       INPUT FILE
================================================================================
NAME = TMB20_T3.in
|  1> #
|  2> # TMB20_T3 TPSS-D3BJ/Def2-TZVPPD
|  3> #
|  4> ! tpss d3bj def2-tzvppd def2/j grid4 nofinalgrid
|  5> 
|  6> *xyz 0 1
|  7> Re      -0.699337    0.269974   -0.016922 
|  8> C       -1.517494    1.171658    1.511937 
|  9> C       -2.128741    0.734814   -1.269556 
| 10> C        0.006415    1.979914   -0.520985 
| 11> Br      -2.293994   -1.692635    0.422377 
| 12> O        0.401983    3.017146   -0.812479 
| 13> O       -1.978437    1.683611    2.420736 
| 14> O       -2.925520    0.985618   -2.040062 
| 15> C        1.682445   -0.880018   -1.649716 
| 16> C        0.364751   -1.082540   -1.469297 
| 17> C        2.354559    0.058914   -0.699791 
| 18> C        3.755152   -0.401179   -0.311110 
| 19> O        4.391770   -1.216840   -0.916463 
| 20> O        4.190730    0.250058    0.766853 
| 21> C        1.438220    0.283372    0.494253 
| 22> O        0.848413   -0.807036    1.012308 
| 23> H        0.600901   -1.340620   -0.125835 
| 24> C        5.512413   -0.088930    1.195157 
| 25> H        5.700542    0.516294    2.077458 
| 26> H        5.571154   -1.149548    1.436871 
| 27> H        6.234349    0.138790    0.411497 
| 28> H       -0.156995   -1.792005   -2.102193 
| 29> H        2.493970    1.031893   -1.188973 
| 30> H        1.754916    1.016172    1.230092 
| 31> H        2.303398   -1.383326   -2.385460 
| 32> *
| 33> 
| 34> %maxcore 5000
| 35> 
| 36> %pal
| 37> nprocs = 24
| 38> end
| 39> 
| 40> 
| 41>                          ****END OF INPUT****
================================================================================

                       ****************************
                       * Single Point Calculation *
                       ****************************

---------------------------------
CARTESIAN COORDINATES (ANGSTROEM)
---------------------------------
  Re    -0.699337    0.269974   -0.016922
  C     -1.517494    1.171658    1.511937
  C     -2.128741    0.734814   -1.269556
  C      0.006415    1.979914   -0.520985
  Br    -2.293994   -1.692635    0.422377
  O      0.401983    3.017146   -0.812479
  O     -1.978437    1.683611    2.420736
  O     -2.925520    0.985618   -2.040062
  C      1.682445   -0.880018   -1.649716
  C      0.364751   -1.082540   -1.469297
  C      2.354559    0.058914   -0.699791
  C      3.755152   -0.401179   -0.311110
  O      4.391770   -1.216840   -0.916463
  O      4.190730    0.250058    0.766853
  C      1.438220    0.283372    0.494253
  O      0.848413   -0.807036    1.012308
  H      0.600901   -1.340620   -0.125835
  C      5.512413   -0.088930    1.195157
  H      5.700542    0.516294    2.077458
  H      5.571154   -1.149548    1.436871
  H      6.234349    0.138790    0.411497
  H     -0.156995   -1.792005   -2.102193
  H      2.493970    1.031893   -1.188973
  H      1.754916    1.016172    1.230092
  H      2.303398   -1.383326   -2.385460

----------------------------
CARTESIAN COORDINATES (A.U.)
----------------------------
  NO LB      ZA    FRAG     MASS         X           Y           Z
   0 Re   15.0000*   0   186.207   -1.321555    0.510177   -0.031978
   1 C     6.0000    0    12.011   -2.867648    2.214113    2.857147
   2 C     6.0000    0    12.011   -4.022738    1.388597   -2.399113
   3 C     6.0000    0    12.011    0.012123    3.741495   -0.984519
   4 Br   35.0000    0    79.900   -4.335020   -3.198617    0.798177
   5 O     8.0000    0    15.999    0.759638    5.701580   -1.535363
   6 O     8.0000    0    15.999   -3.738704    3.181564    4.574528
   7 O     8.0000    0    15.999   -5.528432    1.862548   -3.855158
   8 C     6.0000    0    12.011    3.179360   -1.662993   -3.117511
   9 C     6.0000    0    12.011    0.689279   -2.045704   -2.776569
  10 C     6.0000    0    12.011    4.449472    0.111331   -1.322413
  11 C     6.0000    0    12.011    7.096209   -0.758118   -0.587913
  12 O     8.0000    0    15.999    8.299243   -2.299494   -1.731864
  13 O     8.0000    0    15.999    7.919332    0.472541    1.449142
  14 C     6.0000    0    12.011    2.717842    0.535495    0.934003
  15 O     8.0000    0    15.999    1.603268   -1.525077    1.912985
  16 H     1.0000    0     1.008    1.135538   -2.533405   -0.237794
  17 C     6.0000    0    12.011   10.416951   -0.168053    2.258519
  18 H     1.0000    0     1.008   10.772463    0.975654    3.925827
  19 H     1.0000    0     1.008   10.527955   -2.172331    2.715293
  20 H     1.0000    0     1.008   11.781212    0.262275    0.777617
  21 H     1.0000    0     1.008   -0.296678   -3.386399   -3.972569
  22 H     1.0000    0     1.008    4.712920    1.949995   -2.246833
  23 H     1.0000    0     1.008    3.316311    1.920287    2.324537
  24 H     1.0000    0     1.008    4.352791   -2.614107   -4.507866
* core charge reduced due to ECP

--------------------------------
INTERNAL COORDINATES (ANGSTROEM)
--------------------------------
 Re     0   0   0     0.000000000000     0.00000000     0.00000000
 C      1   0   0     1.954437196327     0.00000000     0.00000000
 C      1   2   0     1.956620545423    94.89763780     0.00000000
 C      1   2   3     1.917305452210    87.03594561    83.32302544
 Br     1   2   3     2.566660991625    87.63899565   279.60870158
 O      4   1   2     1.147733861348   178.40964044   323.56073375
 O      2   1   3     1.140385875859   178.62318253   163.05508526
 O      3   1   2     1.136414940633   177.08961029   169.78546646
 C      1   2   3     3.108276587118   154.47304794   154.77965340
 C      9   1   2     1.345319164244    40.06734712   152.08343853
 C      9   1   2     1.495221734475    77.19612427   341.50904740
 C     11   9   1     1.524604617617   112.66894593   148.48497398
 O     12  11   9     1.198765030961   124.36488554    17.37883892
 O     12  11   9     1.332607239070   111.04005391   195.63900835
 C     11   9   1     1.521775157709   108.68933400    21.88558486
 O     15  11   9     1.343593274298   116.56188518    44.40834488
 H     16  15  11     1.281149313565    94.60460810   319.50985710
 C     14  12  11     1.430105986649   115.37267366   181.38322321
 H     18  14  12     1.086344174476   105.73734913   180.60817881
 H     18  14  12     1.089397404440   110.30749471   300.28970663
 H     18  14  12     1.089573761659   110.32879039    60.90773962
 H     10   9   1     1.084489198451   119.43501261   172.68803095
 H     11   9   1     1.097917387824   109.29972890   265.21811132
 H     15  11   9     1.085703104139   117.10999601   185.35282904
 H      9   1   2     1.086379677925   164.82953318   172.66653654

---------------------------
INTERNAL COORDINATES (A.U.)
---------------------------
 Re     0   0   0     0.000000000000     0.00000000     0.00000000
 C      1   0   0     3.693351047007     0.00000000     0.00000000
 C      1   2   0     3.697476978853    94.89763780     0.00000000
 C      1   2   3     3.623182219750    87.03594561    83.32302544
 Br     1   2   3     4.850286352791    87.63899565   279.60870158
 O      4   1   2     2.168902672575   178.40964044   323.56073375
 O      2   1   3     2.155016992366   178.62318253   163.05508526
 O      3   1   2     2.147513012292   177.08961029   169.78546646
 C      1   2   3     5.873791498132   154.47304794   154.77965340
 C      9   1   2     2.542284783136    40.06734712   152.08343853
 C      9   1   2     2.825559587644    77.19612427   341.50904740
 C     11   9   1     2.881085189808   112.66894593   148.48497398
 O     12  11   9     2.265337607437   124.36488554    17.37883892
 O     12  11   9     2.518262725923   111.04005391   195.63900835
 C     11   9   1     2.875738285475   108.68933400    21.88558486
 O     15  11   9     2.539023323801   116.56188518    44.40834488
 H     16  15  11     2.421021339300    94.60460810   319.50985710
 C     14  12  11     2.702508657248   115.37267366   181.38322321
 H     18  14  12     2.052892976940   105.73734913   180.60817881
 H     18  14  12     2.058662745397   110.30749471   300.28970663
 H     18  14  12     2.058996012242   110.32879039    60.90773962
 H     10   9   1     2.049387580268   119.43501261   172.68803095
 H     11   9   1     2.074763180657   109.29972890   265.21811132
 H     15  11   9     2.051681529571   117.10999601   185.35282904
 H      9   1   2     2.052960068736   164.82953318   172.66653654

---------------------
BASIS SET INFORMATION
---------------------
There are 5 groups of distinct atoms

 Group   1 Type Re  : 8s8p6d2f1g contracted to 6s5p3d2f1g pattern {311111/41111/411/11/1}
 Group   2 Type C   : 12s6p3d1f contracted to 6s3p3d1f pattern {621111/411/111/1}
 Group   3 Type Br  : 18s14p9d1f contracted to 7s6p5d1f pattern {8421111/641111/51111/1}
 Group   4 Type O   : 12s7p3d1f contracted to 6s4p3d1f pattern {621111/4111/111/1}
 Group   5 Type H   : 5s3p1d contracted to 3s3p1d pattern {311/111/1}

Atom   0Re   basis set group =>   1
Atom   1C    basis set group =>   2
Atom   2C    basis set group =>   2
Atom   3C    basis set group =>   2
Atom   4Br   basis set group =>   3
Atom   5O    basis set group =>   4
Atom   6O    basis set group =>   4
Atom   7O    basis set group =>   4
Atom   8C    basis set group =>   2
Atom   9C    basis set group =>   2
Atom  10C    basis set group =>   2
Atom  11C    basis set group =>   2
Atom  12O    basis set group =>   4
Atom  13O    basis set group =>   4
Atom  14C    basis set group =>   2
Atom  15O    basis set group =>   4
Atom  16H    basis set group =>   5
Atom  17C    basis set group =>   2
Atom  18H    basis set group =>   5
Atom  19H    basis set group =>   5
Atom  20H    basis set group =>   5
Atom  21H    basis set group =>   5
Atom  22H    basis set group =>   5
Atom  23H    basis set group =>   5
Atom  24H    basis set group =>   5
---------------------------------
AUXILIARY/J BASIS SET INFORMATION
---------------------------------
There are 5 groups of distinct atoms

 Group   1 Type Re  : 11s5p5d3f3g contracted to 8s5p5d2f3g pattern {41111111/11111/11111/21/111}
 Group   2 Type C   : 12s5p4d2f1g contracted to 6s4p3d1f1g pattern {711111/2111/211/2/1}
 Group   3 Type Br  : 19s5p5d3f1g contracted to 8s4p3d2f1g pattern {121111111/2111/311/21/1}
 Group   4 Type O   : 12s5p4d2f1g contracted to 6s4p3d1f1g pattern {711111/2111/211/2/1}
 Group   5 Type H   : 5s2p1d contracted to 3s1p1d pattern {311/2/1}

Atom   0Re   basis set group =>   1
Atom   1C    basis set group =>   2
Atom   2C    basis set group =>   2
Atom   3C    basis set group =>   2
Atom   4Br   basis set group =>   3
Atom   5O    basis set group =>   4
Atom   6O    basis set group =>   4
Atom   7O    basis set group =>   4
Atom   8C    basis set group =>   2
Atom   9C    basis set group =>   2
Atom  10C    basis set group =>   2
Atom  11C    basis set group =>   2
Atom  12O    basis set group =>   4
Atom  13O    basis set group =>   4
Atom  14C    basis set group =>   2
Atom  15O    basis set group =>   4
Atom  16H    basis set group =>   5
Atom  17C    basis set group =>   2
Atom  18H    basis set group =>   5
Atom  19H    basis set group =>   5
Atom  20H    basis set group =>   5
Atom  21H    basis set group =>   5
Atom  22H    basis set group =>   5
Atom  23H    basis set group =>   5
Atom  24H    basis set group =>   5
-------------------------
ECP PARAMETER INFORMATION
-------------------------

 Group 1, Type Re ECP Def2-ECP (replacing 60 core electrons, lmax=3)

Atom   0Re   ECP group =>   1



           ************************************************************
           *        Program running with 24 parallel MPI-processes    *
           *              working on a common directory               *
           ************************************************************
------------------------------------------------------------------------------
                           ORCA GTO INTEGRAL CALCULATION
                           -- RI-GTO INTEGRALS CHOSEN --
------------------------------------------------------------------------------

                         BASIS SET STATISTICS AND STARTUP INFO

Gaussian basis set:
 # of primitive gaussian shells          ...  475
 # of primitive gaussian functions       ... 1147
 # of contracted shells                  ...  293
 # of contracted basis functions         ...  825
 Highest angular momentum                ...    4
 Maximum contraction depth               ...    8
Auxiliary gaussian basis set:
 # of primitive gaussian shells          ...  484
 # of primitive gaussian functions       ... 1366
 # of contracted shells                  ...  306
 # of contracted aux-basis functions     ...  970
 Highest angular momentum                ...    4
 Maximum contraction depth               ...   12
Ratio of auxiliary to basis functions    ...  1.18
Integral package used                  ... LIBINT
 One Electron integrals                  
   ECP integrals                         ... done
 Ordering auxiliary basis shells         ... done
 Integral threshhold             Thresh  ...  1.000e-10
 Primitive cut-off               TCut    ...  1.000e-11
 Pre-screening matrix                    ... done
 Shell pair data                         ... 
 Ordering of the shell pairs             ... done (   0.006 sec) 35346 of 43071 pairs
 Determination of significant pairs      ... done (   0.000 sec)
 Creation of shell pair data             ... done (   0.003 sec)
 Storage of shell pair data              ... done (   0.005 sec)
 Shell pair data done in (   0.015 sec)
 Computing two index integrals           ... done
 Cholesky decomposition of the V-matrix  ... done


Timings:
 Total evaluation time                   ...   3.167 sec (  0.053 min)
 One electron matrix time                ...   2.626 sec (  0.044 min) = 82.9%
 Schwartz matrix evaluation time         ...   0.459 sec (  0.008 min) = 14.5%
 Two index repulsion integral time       ...   0.020 sec (  0.000 min) =  0.6%
 Cholesky decomposition of V             ...   0.015 sec (  0.000 min) =  0.5%
 Three index repulsion integral time     ...   0.000 sec (  0.000 min) =  0.0%



           ************************************************************
           *        Program running with 24 parallel MPI-processes    *
           *              working on a common directory               *
           ************************************************************
-------------------------------------------------------------------------------
                                 ORCA SCF
-------------------------------------------------------------------------------

------------
SCF SETTINGS
------------
Hamiltonian:
 Density Functional     Method          .... DFT(GTOs)
 Exchange Functional    Exchange        .... TPSS
 Correlation Functional Correlation     .... TPSS
 LDA part of GGA corr.  LDAOpt          .... PW91-LDA
 Gradients option       PostSCFGGA      .... off
   Density functional embedding theory  .... OFF
   NL short-range parameter             ....  5.000000
 RI-approximation to the Coulomb term is turned on
   Number of auxiliary basis functions  .... 970


General Settings:
 Integral files         IntName         .... TMB20_T3
 Hartree-Fock type      HFTyp           .... RHF
 Total Charge           Charge          ....    0
 Multiplicity           Mult            ....    1
 Number of Electrons    NEL             ....  160
 Basis Dimension        Dim             ....  825
 Nuclear Repulsion      ENuc            ....   1774.1240157183 Eh

Convergence Acceleration:
 DIIS                   CNVDIIS         .... on
   Start iteration      DIISMaxIt       ....    12
   Startup error        DIISStart       ....  0.200000
   # of expansion vecs  DIISMaxEq       ....     5
   Bias factor          DIISBfac        ....   1.050
   Max. coefficient     DIISMaxC        ....  10.000
 Newton-Raphson         CNVNR           .... off
 SOSCF                  CNVSOSCF        .... off
 Level Shifting         CNVShift        .... on
   Level shift para.    LevelShift      ....    0.2500
   Turn off err/grad.   ShiftErr        ....    0.0010
 Zerner damping         CNVZerner       .... off
 Static damping         CNVDamp         .... on
   Fraction old density DampFac         ....    0.7000
   Max. Damping (<1)    DampMax         ....    0.9800
   Min. Damping (>=0)   DampMin         ....    0.0000
   Turn off err/grad.   DampErr         ....    0.1000
 Fernandez-Rico         CNVRico         .... off

SCF Procedure:
 Maximum # iterations   MaxIter         ....   125
 SCF integral mode      SCFMode         .... Direct
   Integral package                     .... LIBINT
 Reset frequency        DirectResetFreq ....    20
 Integral Threshold     Thresh          ....  1.000e-10 Eh
 Primitive CutOff       TCut            ....  1.000e-11 Eh

Convergence Tolerance:
 Convergence Check Mode ConvCheckMode   .... Total+1el-Energy
 Convergence forced     ConvForced      .... 0
 Energy Change          TolE            ....  1.000e-06 Eh
 1-El. energy change                    ....  1.000e-03 Eh
 DIIS Error             TolErr          ....  1.000e-06


Diagonalization of the overlap matrix:
Smallest eigenvalue                        ... 9.082e-07
Time for diagonalization                   ...    0.118 sec
Threshold for overlap eigenvalues          ... 1.000e-08
Number of eigenvalues below threshold      ... 0
Time for construction of square roots      ...    0.091 sec
Total time needed                          ...    0.211 sec

-------------------
DFT GRID GENERATION
-------------------

General Integration Accuracy     IntAcc      ...  4.670
Radial Grid Type                 RadialGrid  ... Gauss-Chebyshev
Angular Grid (max. acc.)         AngularGrid ... Lebedev-302
Angular grid pruning method      GridPruning ... 3 (G Style)
Weight generation scheme         WeightScheme... Becke
Basis function cutoff            BFCut       ...    1.0000e-10
Integration weight cutoff        WCut        ...    1.0000e-14
Grids for H and He will be reduced by one unit

# of grid points (after initial pruning)     ... 141600 (   0.0 sec)
# of grid points (after weights+screening)   ... 127200 (   0.1 sec)
nearest neighbour list constructed           ...    0.0 sec
Grid point re-assignment to atoms done       ...    0.0 sec
Grid point division into batches done        ...    0.5 sec
Reduced shell lists constructed in    0.6 sec

Total number of grid points                  ...   127200
Total number of batches                      ...     2000
Average number of points per batch           ...       63
Average number of grid points per atom       ...     5088
Average number of shells per batch           ...   190.09 (64.88%)
Average number of basis functions per batch  ...   553.76 (67.12%)
Average number of large shells per batch     ...   147.84 (77.77%)
Average number of large basis fcns per batch ...   431.46 (77.91%)
Maximum spatial batch extension              ...   1.83,  1.75,  1.73 au
Average spatial batch extension              ...   0.04,  0.04,  0.04 au

Time for grid setup =    0.734 sec

------------------------------
INITIAL GUESS: MODEL POTENTIAL
------------------------------
Loading Hartree-Fock densities                     ... done
  calling /sw/apps/orca/orca_4_2_0_linux_x86-64_openmpi314/orca TMB20_T3_atom75.inp > TMB20_T3_atom75.out in order to generate an atomic fitting density for atom 0 (Re with ECP) on-the-fly... 
    atom 0 (Re), assumed electronic state with S=6: 1s2 2s2 2p6 3s2 3p6 4s2 3d10 4p6 5s2 4d10 5p6 6s2 4f14 5d5           ... done
Calculating cut-offs                               ... done
Setting up the integral package                    ... done
Initializing the effective Hamiltonian             ... done
Starting the Coulomb interaction                   ... done (   0.1 sec)
Reading the grid                                   ... done
Mapping shells                                     ... done
Starting the XC term evaluation                    ... done (   0.4 sec)
  promolecular density results
     # of electrons  =    219.998441541
     EX              =   -519.458078034
     EC              =     -9.981717358
     EX+EC           =   -529.439795392
Transforming the Hamiltonian                       ... done (   0.1 sec)
Diagonalizing the Hamiltonian                      ... done (   0.1 sec)
Back transforming the eigenvectors                 ... done (   0.0 sec)
Now organizing SCF variables                       ... done
                      ------------------
                      INITIAL GUESS DONE (   2.9 sec)
                      ------------------
--------------
SCF ITERATIONS
--------------
ITER       Energy         Delta-E        Max-DP      RMS-DP      [F,P]     Damp
               ***  Starting incremental Fock matrix formation  ***
  0  -3451.5488488714   0.000000000000 0.93262100  0.00340562  0.3932005 0.7000
  1  -3451.7895717507  -0.240722879295 0.73309945  0.00247699  0.2847942 0.7000
                               ***Turning on DIIS***
  2  -3451.8491197427  -0.059547991960 0.54053153  0.00184620  0.1989287 0.7000
  3  -3451.9112433438  -0.062123601100 0.35802703  0.00122367  0.1347861 0.7000
  4  -3451.9509250587  -0.039681714940 0.77496667  0.00269412  0.0934108 0.0000
  5  -3452.0403109457  -0.089385886973 0.02945275  0.00013907  0.0054851 0.0000
  6  -3452.0405456878  -0.000234742082 0.01942581  0.00008478  0.0036696 0.0000
  7  -3452.0406283328  -0.000082644994 0.02258040  0.00008456  0.0004998 0.0000
  8  -3452.0406302571  -0.000001924395 0.02779826  0.00006151  0.0006322 0.0000
  9  -3452.0406324746  -0.000002217432 0.00800770  0.00003158  0.0004560 0.0000
 10  -3452.0406334212  -0.000000946670 0.01246175  0.00005732  0.0001341 0.0000
 11  -3452.0406334637  -0.000000042430 0.01405990  0.00004554  0.0000780 0.0000
 12  -3452.0406337381  -0.000000274471 0.02357161  0.00005913  0.0000478 0.0000
 13  -3452.0406339914  -0.000000253297 0.04090083  0.00008790  0.0000273 0.0000
                 **** Energy Check signals convergence ****

               *****************************************************
               *                     SUCCESS                       *
               *           SCF CONVERGED AFTER  14 CYCLES          *
               *****************************************************


----------------
TOTAL SCF ENERGY
----------------

Total Energy       :        -3452.04063443 Eh          -93934.80122 eV

Components:
Nuclear Repulsion  :         1774.12401572 Eh           48276.36879 eV
Electronic Energy  :        -5226.16465015 Eh         -142211.17001 eV
One Electron Energy:        -8339.02289683 Eh         -226916.34923 eV
Two Electron Energy:         3112.85824668 Eh           84705.17922 eV

Virial components:
Potential Energy   :        -6845.64156791 Eh         -186279.37732 eV
Kinetic Energy     :         3393.60093348 Eh           92344.57611 eV
Virial Ratio       :            2.01722056


DFT components:
N(Alpha)           :       80.000036424873 electrons
N(Beta)            :       80.000036424873 electrons
N(Total)           :      160.000072849746 electrons
E(X)               :     -197.193337918245 Eh       
E(C)               :       -6.092295412472 Eh       
E(XC)              :     -203.285633330717 Eh       
DFET-embed. en.    :        0.000000000000 Eh       

---------------
SCF CONVERGENCE
---------------

  Last Energy change         ...   -4.3939e-07  Tolerance :   1.0000e-06
  Last MAX-Density change    ...    5.2575e-02  Tolerance :   1.0000e-05
  Last RMS-Density change    ...    1.2849e-04  Tolerance :   1.0000e-06
  Last DIIS Error            ...    7.1557e-06  Tolerance :   1.0000e-06

             **** THE GBW FILE WAS UPDATED (TMB20_T3.gbw) ****
             **** DENSITY FILE WAS UPDATED (TMB20_T3.scfp) ****
             **** ENERGY FILE WAS UPDATED (TMB20_T3.en.tmp) ****
             **** THE GBW FILE WAS UPDATED (TMB20_T3.gbw) ****
             **** DENSITY FILE WAS UPDATED (TMB20_T3.scfp) ****
----------------
ORBITAL ENERGIES
----------------

  NO   OCC          E(Eh)            E(eV) 
   0   2.0000    -481.694481    -13107.5732 
   1   2.0000     -61.910734     -1684.6767 
   2   2.0000     -55.743758     -1516.8648 
   3   2.0000     -55.742065     -1516.8187 
   4   2.0000     -55.741762     -1516.8104 
   5   2.0000     -18.978547      -516.4325 
   6   2.0000     -18.967152      -516.1225 
   7   2.0000     -18.963343      -516.0188 
   8   2.0000     -18.962541      -515.9970 
   9   2.0000     -18.955664      -515.8099 
  10   2.0000     -18.902135      -514.3533 
  11   2.0000     -10.138628      -275.8861 
  12   2.0000     -10.117246      -275.3043 
  13   2.0000     -10.113797      -275.2104 
  14   2.0000     -10.105788      -274.9925 
  15   2.0000     -10.099221      -274.8138 
  16   2.0000     -10.065529      -273.8970 
  17   2.0000     -10.052916      -273.5537 
  18   2.0000     -10.039149      -273.1791 
  19   2.0000     -10.003482      -272.2086 
  20   2.0000      -8.440521      -229.6782 
  21   2.0000      -6.282200      -170.9474 
  22   2.0000      -6.276181      -170.7836 
  23   2.0000      -6.274976      -170.7508 
  24   2.0000      -3.138717       -85.4088 
  25   2.0000      -2.449362       -66.6505 
  26   2.0000      -2.448098       -66.6161 
  27   2.0000      -2.447153       -66.5904 
  28   2.0000      -2.442514       -66.4642 
  29   2.0000      -2.442493       -66.4636 
  30   2.0000      -1.734650       -47.2022 
  31   2.0000      -1.727900       -47.0185 
  32   2.0000      -1.716612       -46.7114 
  33   2.0000      -1.086893       -29.5759 
  34   2.0000      -1.075312       -29.2607 
  35   2.0000      -1.074789       -29.2465 
  36   2.0000      -1.070684       -29.1348 
  37   2.0000      -1.031050       -28.0563 
  38   2.0000      -0.987716       -26.8771 
  39   2.0000      -0.804920       -21.9030 
  40   2.0000      -0.731241       -19.8981 
  41   2.0000      -0.688779       -18.7426 
  42   2.0000      -0.676883       -18.4189 
  43   2.0000      -0.618242       -16.8232 
  44   2.0000      -0.567524       -15.4431 
  45   2.0000      -0.560101       -15.2411 
  46   2.0000      -0.550593       -14.9824 
  47   2.0000      -0.536597       -14.6015 
  48   2.0000      -0.528286       -14.3754 
  49   2.0000      -0.515169       -14.0185 
  50   2.0000      -0.499325       -13.5873 
  51   2.0000      -0.472027       -12.8445 
  52   2.0000      -0.465980       -12.6799 
  53   2.0000      -0.460339       -12.5265 
  54   2.0000      -0.453414       -12.3380 
  55   2.0000      -0.450755       -12.2657 
  56   2.0000      -0.441552       -12.0152 
  57   2.0000      -0.438360       -11.9284 
  58   2.0000      -0.434926       -11.8350 
  59   2.0000      -0.432360       -11.7651 
  60   2.0000      -0.428275       -11.6539 
  61   2.0000      -0.423313       -11.5189 
  62   2.0000      -0.419814       -11.4237 
  63   2.0000      -0.414555       -11.2806 
  64   2.0000      -0.411679       -11.2023 
  65   2.0000      -0.402524       -10.9532 
  66   2.0000      -0.387464       -10.5434 
  67   2.0000      -0.372465       -10.1353 
  68   2.0000      -0.355432        -9.6718 
  69   2.0000      -0.349833        -9.5194 
  70   2.0000      -0.307731        -8.3738 
  71   2.0000      -0.303321        -8.2538 
  72   2.0000      -0.294310        -8.0086 
  73   2.0000      -0.282306        -7.6819 
  74   2.0000      -0.274396        -7.4667 
  75   2.0000      -0.266134        -7.2419 
  76   2.0000      -0.252765        -6.8781 
  77   2.0000      -0.244511        -6.6535 
  78   2.0000      -0.231760        -6.3065 
  79   2.0000      -0.214585        -5.8392 
  80   0.0000      -0.119813        -3.2603 
  81   0.0000      -0.100987        -2.7480 
  82   0.0000      -0.065578        -1.7845 
  83   0.0000      -0.061478        -1.6729 
  84   0.0000      -0.051986        -1.4146 
  85   0.0000      -0.046912        -1.2765 
  86   0.0000      -0.034710        -0.9445 
  87   0.0000      -0.032149        -0.8748 
  88   0.0000      -0.020177        -0.5491 
  89   0.0000      -0.017008        -0.4628 
  90   0.0000      -0.009803        -0.2667 
  91   0.0000      -0.003765        -0.1024 
  92   0.0000      -0.000513        -0.0140 
  93   0.0000       0.004401         0.1197 
  94   0.0000       0.010685         0.2908 
  95   0.0000       0.015099         0.4109 
  96   0.0000       0.026816         0.7297 
  97   0.0000       0.030486         0.8296 
  98   0.0000       0.032114         0.8739 
  99   0.0000       0.035993         0.9794 
 100   0.0000       0.043070         1.1720 
 101   0.0000       0.050769         1.3815 
 102   0.0000       0.051333         1.3968 
 103   0.0000       0.056609         1.5404 
 104   0.0000       0.059754         1.6260 
 105   0.0000       0.062791         1.7086 
 106   0.0000       0.069840         1.9004 
 107   0.0000       0.071482         1.9451 
 108   0.0000       0.073884         2.0105 
 109   0.0000       0.078669         2.1407 
 110   0.0000       0.082855         2.2546 
 111   0.0000       0.089364         2.4317 
 112   0.0000       0.094685         2.5765 
 113   0.0000       0.098429         2.6784 
 114   0.0000       0.101931         2.7737 
 115   0.0000       0.107088         2.9140 
 116   0.0000       0.112062         3.0494 
 117   0.0000       0.119013         3.2385 
 118   0.0000       0.120443         3.2774 
 119   0.0000       0.121601         3.3089 
 120   0.0000       0.126042         3.4298 
 121   0.0000       0.127063         3.4576 
 122   0.0000       0.132781         3.6132 
 123   0.0000       0.137577         3.7437 
 124   0.0000       0.139382         3.7928 
 125   0.0000       0.142125         3.8674 
 126   0.0000       0.149602         4.0709 
 127   0.0000       0.151807         4.1309 
 128   0.0000       0.155600         4.2341 
 129   0.0000       0.159128         4.3301 
 130   0.0000       0.162012         4.4086 
 131   0.0000       0.164085         4.4650 
 132   0.0000       0.167630         4.5614 
 133   0.0000       0.172085         4.6827 
 134   0.0000       0.178379         4.8539 
 135   0.0000       0.182875         4.9763 
 136   0.0000       0.185241         5.0407 
 137   0.0000       0.186227         5.0675 
 138   0.0000       0.188820         5.1380 
 139   0.0000       0.196423         5.3450 
 140   0.0000       0.199784         5.4364 
 141   0.0000       0.203972         5.5504 
 142   0.0000       0.205885         5.6024 
 143   0.0000       0.209878         5.7111 
 144   0.0000       0.213269         5.8033 
 145   0.0000       0.214777         5.8444 
 146   0.0000       0.219581         5.9751 
 147   0.0000       0.224050         6.0967 
 148   0.0000       0.227075         6.1790 
 149   0.0000       0.233095         6.3428 
 150   0.0000       0.235701         6.4138 
 151   0.0000       0.239071         6.5055 
 152   0.0000       0.240081         6.5329 
 153   0.0000       0.243078         6.6145 
 154   0.0000       0.245384         6.6772 
 155   0.0000       0.247559         6.7364 
 156   0.0000       0.249845         6.7986 
 157   0.0000       0.255679         6.9574 
 158   0.0000       0.257611         7.0100 
 159   0.0000       0.261389         7.1128 
 160   0.0000       0.265180         7.2159 
 161   0.0000       0.265803         7.2329 
 162   0.0000       0.271154         7.3785 
 163   0.0000       0.274958         7.4820 
 164   0.0000       0.278747         7.5851 
 165   0.0000       0.280876         7.6430 
 166   0.0000       0.284082         7.7303 
 167   0.0000       0.286244         7.7891 
 168   0.0000       0.289515         7.8781 
 169   0.0000       0.292885         7.9698 
 170   0.0000       0.297052         8.0832 
 171   0.0000       0.300077         8.1655 
 172   0.0000       0.303845         8.2681 
 173   0.0000       0.308296         8.3892 
 174   0.0000       0.314281         8.5520 
 175   0.0000       0.315459         8.5841 
 176   0.0000       0.317383         8.6364 
 177   0.0000       0.318984         8.6800 
 178   0.0000       0.324051         8.8179 
 179   0.0000       0.326659         8.8888 
 180   0.0000       0.334637         9.1059 
 181   0.0000       0.338135         9.2011 
 182   0.0000       0.340231         9.2582 
 183   0.0000       0.344148         9.3648 
 184   0.0000       0.345610         9.4045 
 185   0.0000       0.347626         9.4594 
 186   0.0000       0.351906         9.5758 
 187   0.0000       0.353831         9.6282 
 188   0.0000       0.356729         9.7071 
 189   0.0000       0.363806         9.8997 
 190   0.0000       0.365785         9.9535 
 191   0.0000       0.370490        10.0816 
 192   0.0000       0.371458        10.1079 
 193   0.0000       0.378171        10.2906 
 194   0.0000       0.380940        10.3659 
 195   0.0000       0.386426        10.5152 
 196   0.0000       0.389712        10.6046 
 197   0.0000       0.391445        10.6517 
 198   0.0000       0.399406        10.8684 
 199   0.0000       0.403008        10.9664 
 200   0.0000       0.406180        11.0527 
 201   0.0000       0.408966        11.1285 
 202   0.0000       0.411805        11.2058 
 203   0.0000       0.419055        11.4031 
 204   0.0000       0.422777        11.5043 
 205   0.0000       0.428693        11.6653 
 206   0.0000       0.432158        11.7596 
 207   0.0000       0.437382        11.9018 
 208   0.0000       0.441593        12.0164 
 209   0.0000       0.444743        12.1021 
 210   0.0000       0.448617        12.2075 
 211   0.0000       0.451115        12.2755 
 212   0.0000       0.454755        12.3745 
 213   0.0000       0.458310        12.4712 
 214   0.0000       0.461478        12.5575 
 215   0.0000       0.464726        12.6458 
 216   0.0000       0.466682        12.6991 
 217   0.0000       0.469208        12.7678 
 218   0.0000       0.473230        12.8772 
 219   0.0000       0.476993        12.9796 
 220   0.0000       0.483158        13.1474 
 221   0.0000       0.485177        13.2023 
 222   0.0000       0.495881        13.4936 
 223   0.0000       0.496912        13.5217 
 224   0.0000       0.497010        13.5243 
 225   0.0000       0.502997        13.6872 
 226   0.0000       0.512661        13.9502 
 227   0.0000       0.513757        13.9800 
 228   0.0000       0.519679        14.1412 
 229   0.0000       0.522066        14.2061 
 230   0.0000       0.523605        14.2480 
 231   0.0000       0.527125        14.3438 
 232   0.0000       0.534422        14.5424 
 233   0.0000       0.539944        14.6926 
 234   0.0000       0.542300        14.7567 
 235   0.0000       0.548238        14.9183 
 236   0.0000       0.551887        15.0176 
 237   0.0000       0.553480        15.0609 
 238   0.0000       0.559202        15.2167 
 239   0.0000       0.563736        15.3400 
 240   0.0000       0.569050        15.4846 
 241   0.0000       0.573181        15.5970 
 242   0.0000       0.581752        15.8303 
 243   0.0000       0.582269        15.8443 
 244   0.0000       0.588264        16.0075 
 245   0.0000       0.590549        16.0696 
 246   0.0000       0.592602        16.1255 
 247   0.0000       0.595952        16.2167 
 248   0.0000       0.596683        16.2366 
 249   0.0000       0.600056        16.3284 
 250   0.0000       0.608585        16.5604 
 251   0.0000       0.609125        16.5751 
 252   0.0000       0.611120        16.6294 
 253   0.0000       0.616813        16.7843 
 254   0.0000       0.622153        16.9296 
 255   0.0000       0.627431        17.0733 
 256   0.0000       0.629811        17.1380 
 257   0.0000       0.634784        17.2734 
 258   0.0000       0.636016        17.3069 
 259   0.0000       0.644238        17.5306 
 260   0.0000       0.647265        17.6130 
 261   0.0000       0.651328        17.7235 
 262   0.0000       0.652270        17.7492 
 263   0.0000       0.654138        17.8000 
 264   0.0000       0.658370        17.9152 
 265   0.0000       0.664972        18.0948 
 266   0.0000       0.669505        18.2181 
 267   0.0000       0.673655        18.3311 
 268   0.0000       0.676678        18.4133 
 269   0.0000       0.680221        18.5098 
 270   0.0000       0.686119        18.6702 
 271   0.0000       0.691862        18.8265 
 272   0.0000       0.692756        18.8508 
 273   0.0000       0.699523        19.0350 
 274   0.0000       0.702185        19.1074 
 275   0.0000       0.705631        19.2012 
 276   0.0000       0.709062        19.2946 
 277   0.0000       0.710606        19.3366 
 278   0.0000       0.711186        19.3523 
 279   0.0000       0.720586        19.6081 
 280   0.0000       0.722264        19.6538 
 281   0.0000       0.725561        19.7435 
 282   0.0000       0.733993        19.9730 
 283   0.0000       0.735641        20.0178 
 284   0.0000       0.740778        20.1576 
 285   0.0000       0.745746        20.2928 
 286   0.0000       0.748634        20.3714 
 287   0.0000       0.751782        20.4570 
 288   0.0000       0.757887        20.6231 
 289   0.0000       0.759834        20.6761 
 290   0.0000       0.763718        20.7818 
 291   0.0000       0.767118        20.8743 
 292   0.0000       0.772002        21.0073 
 293   0.0000       0.772737        21.0272 
 294   0.0000       0.783845        21.3295 
 295   0.0000       0.787980        21.4420 
 296   0.0000       0.789901        21.4943 
 297   0.0000       0.795237        21.6395 
 298   0.0000       0.804831        21.9006 
 299   0.0000       0.808216        21.9927 
 300   0.0000       0.811937        22.0939 
 301   0.0000       0.819641        22.3036 
 302   0.0000       0.825151        22.4535 
 303   0.0000       0.829786        22.5796 
 304   0.0000       0.830923        22.6106 
 305   0.0000       0.834653        22.7121 
 306   0.0000       0.839285        22.8381 
 307   0.0000       0.845635        23.0109 
 308   0.0000       0.850347        23.1391 
 309   0.0000       0.854221        23.2445 
 310   0.0000       0.865056        23.5394 
 311   0.0000       0.870031        23.6748 
 312   0.0000       0.874842        23.8057 
 313   0.0000       0.877762        23.8851 
 314   0.0000       0.883294        24.0356 
 315   0.0000       0.892182        24.2775 
 316   0.0000       0.897975        24.4351 
 317   0.0000       0.911262        24.7967 
 318   0.0000       0.918505        24.9938 
 319   0.0000       0.921062        25.0634 
 320   0.0000       0.928599        25.2685 
 321   0.0000       0.936963        25.4961 
 322   0.0000       0.949943        25.8493 
 323   0.0000       0.952810        25.9273 
 324   0.0000       0.959705        26.1149 
 325   0.0000       0.961690        26.1689 
 326   0.0000       0.970054        26.3965 
 327   0.0000       0.975198        26.5365 
 328   0.0000       0.980959        26.6932 
 329   0.0000       0.988596        26.9011 
 330   0.0000       0.995612        27.0920 
 331   0.0000       0.999777        27.2053 
 332   0.0000       1.005298        27.3555 
 333   0.0000       1.006469        27.3874 
 334   0.0000       1.010443        27.4956 
 335   0.0000       1.015083        27.6218 
 336   0.0000       1.025910        27.9164 
 337   0.0000       1.034791        28.1581 
 338   0.0000       1.042688        28.3730 
 339   0.0000       1.048465        28.5302 
 340   0.0000       1.051510        28.6130 
 341   0.0000       1.059262        28.8240 
 342   0.0000       1.070296        29.1242 
 343   0.0000       1.072807        29.1925 
 344   0.0000       1.081559        29.4307 
 345   0.0000       1.093927        29.7673 
 346   0.0000       1.102137        29.9907 
 347   0.0000       1.109317        30.1860 
 348   0.0000       1.115360        30.3505 
 349   0.0000       1.126082        30.6422 
 350   0.0000       1.130752        30.7693 
 351   0.0000       1.140761        31.0417 
 352   0.0000       1.152525        31.3618 
 353   0.0000       1.153999        31.4019 
 354   0.0000       1.166141        31.7323 
 355   0.0000       1.173689        31.9377 
 356   0.0000       1.176361        32.0104 
 357   0.0000       1.178953        32.0809 
 358   0.0000       1.193210        32.4689 
 359   0.0000       1.198350        32.6088 
 360   0.0000       1.208740        32.8915 
 361   0.0000       1.213122        33.0107 
 362   0.0000       1.223667        33.2977 
 363   0.0000       1.229012        33.4431 
 364   0.0000       1.238997        33.7148 
 365   0.0000       1.248556        33.9749 
 366   0.0000       1.251463        34.0540 
 367   0.0000       1.256413        34.1887 
 368   0.0000       1.270176        34.5632 
 369   0.0000       1.274426        34.6789 
 370   0.0000       1.284293        34.9474 
 371   0.0000       1.292314        35.1657 
 372   0.0000       1.300471        35.3876 
 373   0.0000       1.308526        35.6068 
 374   0.0000       1.309789        35.6412 
 375   0.0000       1.314102        35.7585 
 376   0.0000       1.320216        35.9249 
 377   0.0000       1.328338        36.1459 
 378   0.0000       1.338579        36.4246 
 379   0.0000       1.340471        36.4761 
 380   0.0000       1.351634        36.7798 
 381   0.0000       1.362158        37.0662 
 382   0.0000       1.367714        37.2174 
 383   0.0000       1.375220        37.4216 
 384   0.0000       1.377262        37.4772 
 385   0.0000       1.384625        37.6776 
 386   0.0000       1.393493        37.9189 
 387   0.0000       1.409525        38.3551 
 388   0.0000       1.423325        38.7306 
 389   0.0000       1.435786        39.0697 
 390   0.0000       1.439626        39.1742 
 391   0.0000       1.448849        39.4252 
 392   0.0000       1.455066        39.5943 
 393   0.0000       1.457242        39.6536 
 394   0.0000       1.463104        39.8131 
 395   0.0000       1.473252        40.0892 
 396   0.0000       1.480156        40.2771 
 397   0.0000       1.493806        40.6485 
 398   0.0000       1.510848        41.1123 
 399   0.0000       1.527269        41.5591 
 400   0.0000       1.531308        41.6690 
 401   0.0000       1.538933        41.8765 
 402   0.0000       1.540032        41.9064 
 403   0.0000       1.545681        42.0601 
 404   0.0000       1.552052        42.2335 
 405   0.0000       1.555968        42.3401 
 406   0.0000       1.559309        42.4310 
 407   0.0000       1.579650        42.9844 
 408   0.0000       1.588245        43.2183 
 409   0.0000       1.590029        43.2669 
 410   0.0000       1.606167        43.7060 
 411   0.0000       1.608486        43.7691 
 412   0.0000       1.617564        44.0162 
 413   0.0000       1.619188        44.0604 
 414   0.0000       1.626811        44.2678 
 415   0.0000       1.640148        44.6307 
 416   0.0000       1.647535        44.8317 
 417   0.0000       1.657481        45.1024 
 418   0.0000       1.665647        45.3245 
 419   0.0000       1.682837        45.7923 
 420   0.0000       1.685040        45.8523 
 421   0.0000       1.700874        46.2831 
 422   0.0000       1.712497        46.5994 
 423   0.0000       1.719838        46.7992 
 424   0.0000       1.727386        47.0046 
 425   0.0000       1.728333        47.0303 
 426   0.0000       1.736484        47.2521 
 427   0.0000       1.747539        47.5530 
 428   0.0000       1.749755        47.6133 
 429   0.0000       1.759026        47.8655 
 430   0.0000       1.768633        48.1270 
 431   0.0000       1.774135        48.2767 
 432   0.0000       1.783722        48.5376 
 433   0.0000       1.788503        48.6676 
 434   0.0000       1.791788        48.7570 
 435   0.0000       1.802251        49.0417 
 436   0.0000       1.811881        49.3038 
 437   0.0000       1.821802        49.5737 
 438   0.0000       1.829817        49.7919 
 439   0.0000       1.834036        49.9067 
 440   0.0000       1.836607        49.9766 
 441   0.0000       1.839425        50.0533 
 442   0.0000       1.854171        50.4546 
 443   0.0000       1.863775        50.7159 
 444   0.0000       1.870875        50.9091 
 445   0.0000       1.873787        50.9883 
 446   0.0000       1.884250        51.2730 
 447   0.0000       1.890468        51.4423 
 448   0.0000       1.899822        51.6968 
 449   0.0000       1.905619        51.8545 
 450   0.0000       1.925207        52.3875 
 451   0.0000       1.942491        52.8579 
 452   0.0000       1.943701        52.8908 
 453   0.0000       1.959464        53.3197 
 454   0.0000       1.966709        53.5169 
 455   0.0000       1.968391        53.5626 
 456   0.0000       1.974376        53.7255 
 457   0.0000       1.992722        54.2247 
 458   0.0000       2.010028        54.6957 
 459   0.0000       2.013105        54.7794 
 460   0.0000       2.024012        55.0762 
 461   0.0000       2.054118        55.8954 
 462   0.0000       2.058538        56.0157 
 463   0.0000       2.062474        56.1228 
 464   0.0000       2.070974        56.3541 
 465   0.0000       2.094254        56.9876 
 466   0.0000       2.096269        57.0424 
 467   0.0000       2.112567        57.4859 
 468   0.0000       2.131761        58.0082 
 469   0.0000       2.137840        58.1736 
 470   0.0000       2.144504        58.3549 
 471   0.0000       2.159707        58.7686 
 472   0.0000       2.168269        59.0016 
 473   0.0000       2.181709        59.3673 
 474   0.0000       2.194449        59.7140 
 475   0.0000       2.203402        59.9576 
 476   0.0000       2.206043        60.0295 
 477   0.0000       2.216393        60.3111 
 478   0.0000       2.234415        60.8015 
 479   0.0000       2.235861        60.8409 
 480   0.0000       2.255997        61.3888 
 481   0.0000       2.262044        61.5534 
 482   0.0000       2.282323        62.1052 
 483   0.0000       2.307993        62.8037 
 484   0.0000       2.311914        62.9104 
 485   0.0000       2.332426        63.4685 
 486   0.0000       2.339178        63.6523 
 487   0.0000       2.359347        64.2011 
 488   0.0000       2.364804        64.3496 
 489   0.0000       2.367305        64.4177 
 490   0.0000       2.381849        64.8134 
 491   0.0000       2.388342        64.9901 
 492   0.0000       2.394103        65.1468 
 493   0.0000       2.405843        65.4663 
 494   0.0000       2.414632        65.7055 
 495   0.0000       2.437570        66.3296 
 496   0.0000       2.443613        66.4941 
 497   0.0000       2.460167        66.9445 
 498   0.0000       2.475921        67.3732 
 499   0.0000       2.495347        67.9018 
 500   0.0000       2.517205        68.4966 
 501   0.0000       2.524512        68.6955 
 502   0.0000       2.532024        68.8999 
 503   0.0000       2.559492        69.6473 
 504   0.0000       2.571452        69.9728 
 505   0.0000       2.584034        70.3151 
 506   0.0000       2.597320        70.6767 
 507   0.0000       2.621017        71.3215 
 508   0.0000       2.641683        71.8838 
 509   0.0000       2.655600        72.2626 
 510   0.0000       2.674732        72.7831 
 511   0.0000       2.676029        72.8184 
 512   0.0000       2.684973        73.0618 
 513   0.0000       2.692384        73.2635 
 514   0.0000       2.703673        73.5707 
 515   0.0000       2.710349        73.7523 
 516   0.0000       2.726857        74.2016 
 517   0.0000       2.734366        74.4059 
 518   0.0000       2.746997        74.7496 
 519   0.0000       2.752444        74.8978 
 520   0.0000       2.755035        74.9683 
 521   0.0000       2.770684        75.3941 
 522   0.0000       2.777818        75.5883 
 523   0.0000       2.787204        75.8437 
 524   0.0000       2.793835        76.0241 
 525   0.0000       2.805448        76.3401 
 526   0.0000       2.822776        76.8116 
 527   0.0000       2.830495        77.0217 
 528   0.0000       2.847203        77.4763 
 529   0.0000       2.857911        77.7677 
 530   0.0000       2.866018        77.9883 
 531   0.0000       2.877846        78.3102 
 532   0.0000       2.885072        78.5068 
 533   0.0000       2.888834        78.6092 
 534   0.0000       2.904254        79.0288 
 535   0.0000       2.909507        79.1717 
 536   0.0000       2.925716        79.6128 
 537   0.0000       2.938287        79.9548 
 538   0.0000       2.942744        80.0761 
 539   0.0000       2.950279        80.2812 
 540   0.0000       2.963491        80.6407 
 541   0.0000       2.970906        80.8425 
 542   0.0000       2.974562        80.9419 
 543   0.0000       2.989275        81.3423 
 544   0.0000       2.992033        81.4174 
 545   0.0000       3.002024        81.6892 
 546   0.0000       3.009325        81.8879 
 547   0.0000       3.015219        82.0483 
 548   0.0000       3.036591        82.6299 
 549   0.0000       3.037372        82.6511 
 550   0.0000       3.050321        83.0034 
 551   0.0000       3.054223        83.1096 
 552   0.0000       3.068237        83.4910 
 553   0.0000       3.078448        83.7688 
 554   0.0000       3.087804        84.0234 
 555   0.0000       3.094636        84.2093 
 556   0.0000       3.108240        84.5795 
 557   0.0000       3.117220        84.8239 
 558   0.0000       3.128756        85.1378 
 559   0.0000       3.134943        85.3061 
 560   0.0000       3.136289        85.3428 
 561   0.0000       3.155327        85.8608 
 562   0.0000       3.165088        86.1264 
 563   0.0000       3.167270        86.1858 
 564   0.0000       3.179808        86.5270 
 565   0.0000       3.189707        86.7964 
 566   0.0000       3.197126        86.9982 
 567   0.0000       3.203202        87.1636 
 568   0.0000       3.207394        87.2776 
 569   0.0000       3.216677        87.5302 
 570   0.0000       3.223730        87.7221 
 571   0.0000       3.232934        87.9726 
 572   0.0000       3.236816        88.0782 
 573   0.0000       3.245778        88.3221 
 574   0.0000       3.247670        88.3736 
 575   0.0000       3.254665        88.5639 
 576   0.0000       3.267750        88.9200 
 577   0.0000       3.282879        89.3317 
 578   0.0000       3.289749        89.5186 
 579   0.0000       3.297892        89.7402 
 580   0.0000       3.315739        90.2258 
 581   0.0000       3.319432        90.3263 
 582   0.0000       3.326768        90.5260 
 583   0.0000       3.334610        90.7393 
 584   0.0000       3.344951        91.0208 
 585   0.0000       3.346723        91.0690 
 586   0.0000       3.362459        91.4972 
 587   0.0000       3.380078        91.9766 
 588   0.0000       3.388281        92.1998 
 589   0.0000       3.394909        92.3802 
 590   0.0000       3.397553        92.4521 
 591   0.0000       3.410487        92.8041 
 592   0.0000       3.419594        93.0519 
 593   0.0000       3.424807        93.1937 
 594   0.0000       3.437751        93.5460 
 595   0.0000       3.447768        93.8185 
 596   0.0000       3.460350        94.1609 
 597   0.0000       3.466980        94.3413 
 598   0.0000       3.468465        94.3817 
 599   0.0000       3.478823        94.6636 
 600   0.0000       3.484103        94.8073 
 601   0.0000       3.493161        95.0537 
 602   0.0000       3.498966        95.2117 
 603   0.0000       3.512880        95.5903 
 604   0.0000       3.519186        95.7619 
 605   0.0000       3.528537        96.0164 
 606   0.0000       3.540841        96.3512 
 607   0.0000       3.548194        96.5513 
 608   0.0000       3.550770        96.6214 
 609   0.0000       3.561421        96.9112 
 610   0.0000       3.564913        97.0062 
 611   0.0000       3.571263        97.1790 
 612   0.0000       3.586731        97.5999 
 613   0.0000       3.593300        97.7787 
 614   0.0000       3.619360        98.4878 
 615   0.0000       3.631702        98.8236 
 616   0.0000       3.637498        98.9813 
 617   0.0000       3.648962        99.2933 
 618   0.0000       3.661154        99.6251 
 619   0.0000       3.676555       100.0441 
 620   0.0000       3.691245       100.4439 
 621   0.0000       3.706707       100.8646 
 622   0.0000       3.716223       101.1236 
 623   0.0000       3.734607       101.6238 
 624   0.0000       3.746306       101.9422 
 625   0.0000       3.753193       102.1296 
 626   0.0000       3.774198       102.7012 
 627   0.0000       3.788527       103.0911 
 628   0.0000       3.799075       103.3781 
 629   0.0000       3.818238       103.8995 
 630   0.0000       3.842285       104.5539 
 631   0.0000       3.856416       104.9384 
 632   0.0000       3.870233       105.3144 
 633   0.0000       3.893506       105.9477 
 634   0.0000       3.906253       106.2946 
 635   0.0000       3.920032       106.6695 
 636   0.0000       3.926693       106.8508 
 637   0.0000       3.942229       107.2735 
 638   0.0000       3.963193       107.8440 
 639   0.0000       3.981053       108.3300 
 640   0.0000       3.995756       108.7300 
 641   0.0000       4.003892       108.9515 
 642   0.0000       4.016742       109.3011 
 643   0.0000       4.024614       109.5153 
 644   0.0000       4.040479       109.9470 
 645   0.0000       4.041764       109.9820 
 646   0.0000       4.058713       110.4432 
 647   0.0000       4.064650       110.6048 
 648   0.0000       4.088407       111.2512 
 649   0.0000       4.116837       112.0248 
 650   0.0000       4.117356       112.0390 
 651   0.0000       4.131257       112.4172 
 652   0.0000       4.136819       112.5686 
 653   0.0000       4.148469       112.8856 
 654   0.0000       4.163851       113.3042 
 655   0.0000       4.172278       113.5335 
 656   0.0000       4.189628       114.0056 
 657   0.0000       4.200711       114.3072 
 658   0.0000       4.208036       114.5065 
 659   0.0000       4.211716       114.6066 
 660   0.0000       4.224385       114.9514 
 661   0.0000       4.228769       115.0706 
 662   0.0000       4.258536       115.8807 
 663   0.0000       4.272194       116.2523 
 664   0.0000       4.289452       116.7219 
 665   0.0000       4.291264       116.7712 
 666   0.0000       4.299565       116.9971 
 667   0.0000       4.308991       117.2536 
 668   0.0000       4.317248       117.4783 
 669   0.0000       4.341865       118.1482 
 670   0.0000       4.348084       118.3174 
 671   0.0000       4.365618       118.7945 
 672   0.0000       4.371225       118.9471 
 673   0.0000       4.395935       119.6195 
 674   0.0000       4.399886       119.7270 
 675   0.0000       4.414904       120.1356 
 676   0.0000       4.420288       120.2822 
 677   0.0000       4.429405       120.5302 
 678   0.0000       4.448860       121.0596 
 679   0.0000       4.484003       122.0159 
 680   0.0000       4.491813       122.2284 
 681   0.0000       4.496453       122.3547 
 682   0.0000       4.550588       123.8278 
 683   0.0000       4.553182       123.8984 
 684   0.0000       4.598483       125.1311 
 685   0.0000       4.630952       126.0146 
 686   0.0000       4.647369       126.4613 
 687   0.0000       4.658521       126.7648 
 688   0.0000       4.665643       126.9586 
 689   0.0000       4.681968       127.4028 
 690   0.0000       4.696160       127.7890 
 691   0.0000       4.711456       128.2052 
 692   0.0000       4.725144       128.5777 
 693   0.0000       4.774912       129.9320 
 694   0.0000       4.797907       130.5577 
 695   0.0000       4.840051       131.7045 
 696   0.0000       4.856766       132.1593 
 697   0.0000       4.864542       132.3709 
 698   0.0000       4.896843       133.2499 
 699   0.0000       4.920987       133.9069 
 700   0.0000       4.950625       134.7134 
 701   0.0000       4.967802       135.1808 
 702   0.0000       4.972252       135.3018 
 703   0.0000       4.998812       136.0246 
 704   0.0000       5.008987       136.3015 
 705   0.0000       5.023140       136.6866 
 706   0.0000       5.066307       137.8612 
 707   0.0000       5.076729       138.1448 
 708   0.0000       5.079378       138.2169 
 709   0.0000       5.088815       138.4737 
 710   0.0000       5.089942       138.5044 
 711   0.0000       5.092181       138.5653 
 712   0.0000       5.097883       138.7205 
 713   0.0000       5.109428       139.0346 
 714   0.0000       5.117815       139.2628 
 715   0.0000       5.129473       139.5801 
 716   0.0000       5.142413       139.9322 
 717   0.0000       5.165619       140.5636 
 718   0.0000       5.208604       141.7333 
 719   0.0000       5.219822       142.0386 
 720   0.0000       5.236811       142.5009 
 721   0.0000       5.262810       143.2084 
 722   0.0000       5.277323       143.6033 
 723   0.0000       5.304768       144.3501 
 724   0.0000       5.318467       144.7229 
 725   0.0000       5.333086       145.1206 
 726   0.0000       5.355316       145.7256 
 727   0.0000       5.367000       146.0435 
 728   0.0000       5.411024       147.2414 
 729   0.0000       5.428623       147.7204 
 730   0.0000       5.457030       148.4933 
 731   0.0000       5.480213       149.1242 
 732   0.0000       5.490265       149.3977 
 733   0.0000       5.504521       149.7856 
 734   0.0000       5.511987       149.9888 
 735   0.0000       5.515335       150.0799 
 736   0.0000       5.530942       150.5046 
 737   0.0000       5.546256       150.9213 
 738   0.0000       5.549228       151.0022 
 739   0.0000       5.556911       151.2112 
 740   0.0000       5.564021       151.4047 
 741   0.0000       5.591441       152.1509 
 742   0.0000       5.621119       152.9584 
 743   0.0000       5.640286       153.4800 
 744   0.0000       5.661181       154.0486 
 745   0.0000       5.675213       154.4304 
 746   0.0000       5.697459       155.0358 
 747   0.0000       5.733579       156.0186 
 748   0.0000       5.747959       156.4099 
 749   0.0000       5.788008       157.4997 
 750   0.0000       5.811513       158.1393 
 751   0.0000       5.887877       160.2173 
 752   0.0000       5.920363       161.1013 
 753   0.0000       5.969463       162.4373 
 754   0.0000       5.973812       162.5557 
 755   0.0000       6.057989       164.8463 
 756   0.0000       6.069232       165.1522 
 757   0.0000       6.140587       167.0939 
 758   0.0000       6.263303       170.4331 
 759   0.0000       6.278969       170.8594 
 760   0.0000       6.356342       172.9649 
 761   0.0000       6.371274       173.3712 
 762   0.0000       6.387880       173.8231 
 763   0.0000       6.394347       173.9990 
 764   0.0000       6.398772       174.1194 
 765   0.0000       6.413985       174.5334 
 766   0.0000       6.419968       174.6962 
 767   0.0000       6.423570       174.7942 
 768   0.0000       6.427227       174.8937 
 769   0.0000       6.440226       175.2475 
 770   0.0000       6.448208       175.4647 
 771   0.0000       6.458645       175.7487 
 772   0.0000       6.465789       175.9431 
 773   0.0000       6.491601       176.6455 
 774   0.0000       6.504874       177.0066 
 775   0.0000       6.583722       179.1522 
 776   0.0000       6.601967       179.6486 
 777   0.0000       6.629529       180.3986 
 778   0.0000       6.633691       180.5119 
 779   0.0000       6.652480       181.0232 
 780   0.0000       6.743089       183.4888 
 781   0.0000       6.758799       183.9163 
 782   0.0000       6.793759       184.8676 
 783   0.0000       6.813910       185.4159 
 784   0.0000       6.859908       186.6676 
 785   0.0000       6.867707       186.8798 
 786   0.0000       6.870154       186.9464 
 787   0.0000       6.877377       187.1429 
 788   0.0000       6.888726       187.4518 
 789   0.0000       6.897585       187.6928 
 790   0.0000       6.913353       188.1219 
 791   0.0000       6.949813       189.1140 
 792   0.0000       6.988762       190.1739 
 793   0.0000       7.049719       191.8326 
 794   0.0000       7.080302       192.6648 
 795   0.0000       7.166045       194.9980 
 796   0.0000       7.181453       195.4173 
 797   0.0000       7.188122       195.5988 
 798   0.0000       7.195834       195.8086 
 799   0.0000       7.279274       198.0791 
 800   0.0000       7.344729       199.8602 
 801   0.0000       7.477726       203.4793 
 802   0.0000       7.542214       205.2341 
 803   0.0000       7.660619       208.4560 
 804   0.0000       7.965248       216.7454 
 805   0.0000      23.107294       628.7814 
 806   0.0000      23.274703       633.3369 
 807   0.0000      23.360144       635.6618 
 808   0.0000      23.379799       636.1967 
 809   0.0000      23.504178       639.5812 
 810   0.0000      23.557191       641.0238 
 811   0.0000      23.607068       642.3810 
 812   0.0000      23.614222       642.5756 
 813   0.0000      23.771304       646.8501 
 814   0.0000      44.186587      1202.3782 
 815   0.0000      44.228984      1203.5318 
 816   0.0000      44.253190      1204.1905 
 817   0.0000      44.297611      1205.3993 
 818   0.0000      44.453463      1209.6402 
 819   0.0000      44.557778      1212.4788 
 820   0.0000      49.809521      1355.3860 
 821   0.0000      50.547096      1375.4564 
 822   0.0000      51.184618      1392.8043 
 823   0.0000      68.524478      1864.6458 
 824   0.0000     512.944863     13957.9393 

                    ********************************
                    * MULLIKEN POPULATION ANALYSIS *
                    ********************************

-----------------------
MULLIKEN ATOMIC CHARGES
-----------------------
   0 Re:   -0.407773
   1 C :    0.806347
   2 C :    0.681045
   3 C :    0.195738
   4 Br:   -0.559747
   5 O :   -0.391028
   6 O :   -0.321885
   7 O :   -0.293816
   8 C :   -0.648457
   9 C :    0.146239
  10 C :    1.630668
  11 C :    0.189494
  12 O :   -0.635492
  13 O :   -0.362775
  14 C :    0.010024
  15 O :   -0.553558
  16 H :    0.257568
  17 C :   -0.024587
  18 H :    0.074022
  19 H :    0.101897
  20 H :    0.099108
  21 H :   -0.058137
  22 H :   -0.032920
  23 H :    0.069079
  24 H :    0.028946
Sum of atomic charges:   -0.0000000

--------------------------------
MULLIKEN REDUCED ORBITAL CHARGES
--------------------------------
  0 Res       :     2.748837  s :     2.748837
      pz      :     2.383986  p :     6.659357
      px      :     2.053325
      py      :     2.222047
      dz2     :     1.312703  d :     5.822577
      dxz     :     1.141943
      dyz     :     1.076537
      dx2y2   :     1.221863
      dxy     :     1.069530
      f0      :     0.017002  f :     0.170000
      f+1     :     0.023848
      f-1     :     0.020465
      f+2     :     0.021545
      f-2     :     0.036740
      f+3     :     0.027924
      f-3     :     0.022475
      g0      :     0.000664  g :     0.007002
      g+1     :     0.000787
      g-1     :     0.000660
      g+2     :     0.000597
      g-2     :     0.000849
      g+3     :     0.001115
      g-3     :     0.000807
      g+4     :     0.000698
      g-4     :     0.000825
  1 C s       :     3.090142  s :     3.090142
      pz      :     0.708928  p :     2.003943
      px      :     0.613820
      py      :     0.681196
      dz2     :     0.028126  d :     0.080907
      dxz     :     0.008982
      dyz     :     0.019814
      dx2y2   :     0.015108
      dxy     :     0.008877
      f0      :     0.004094  f :     0.018660
      f+1     :     0.002940
      f-1     :     0.003219
      f+2     :     0.003685
      f-2     :     0.003075
      f+3     :     0.000824
      f-3     :     0.000824
  2 C s       :     3.187302  s :     3.187302
      pz      :     0.711665  p :     2.041526
      px      :     0.718677
      py      :     0.611184
      dz2     :     0.033041  d :     0.070964
      dxz     :    -0.020163
      dyz     :     0.016301
      dx2y2   :     0.012688
      dxy     :     0.029097
      f0      :     0.002581  f :     0.019163
      f+1     :     0.004639
      f-1     :     0.001144
      f+2     :     0.003522
      f-2     :     0.003877
      f+3     :     0.001753
      f-3     :     0.001649
  3 C s       :     3.404619  s :     3.404619
      pz      :     0.695973  p :     2.247047
      px      :     0.691763
      py      :     0.859311
      dz2     :     0.017845  d :     0.133021
      dxz     :     0.021873
      dyz     :     0.037285
      dx2y2   :     0.003281
      dxy     :     0.052737
      f0      :     0.001875  f :     0.019576
      f+1     :     0.000696
      f-1     :     0.003314
      f+2     :     0.002485
      f-2     :     0.002376
      f+3     :     0.003936
      f-3     :     0.004894
  4 Brs       :     8.156812  s :     8.156812
      pz      :     5.926534  p :    17.366973
      px      :     5.784071
      py      :     5.656367
      dz2     :     2.004539  d :    10.032869
      dxz     :     2.004112
      dyz     :     2.007296
      dx2y2   :     2.008332
      dxy     :     2.008590
      f0      :     0.000374  f :     0.003094
      f+1     :     0.000223
      f-1     :     0.000381
      f+2     :     0.000230
      f-2     :     0.000545
      f+3     :     0.000667
      f-3     :     0.000675
  5 O s       :     4.048521  s :     4.048521
      pz      :     1.498539  p :     4.294222
      px      :     1.463065
      py      :     1.332617
      dz2     :     0.005436  d :     0.046593
      dxz     :     0.002287
      dyz     :     0.013919
      dx2y2   :     0.012985
      dxy     :     0.011965
      f0      :     0.000155  f :     0.001693
      f+1     :     0.000061
      f-1     :     0.000299
      f+2     :     0.000226
      f-2     :     0.000201
      f+3     :     0.000279
      f-3     :     0.000473
  6 O s       :     4.017615  s :     4.017615
      pz      :     1.355410  p :     4.249977
      px      :     1.457403
      py      :     1.437164
      dz2     :     0.016197  d :     0.052581
      dxz     :     0.011670
      dyz     :     0.010556
      dx2y2   :     0.007804
      dxy     :     0.006354
      f0      :     0.000449  f :     0.001712
      f+1     :     0.000234
      f-1     :     0.000237
      f+2     :     0.000402
      f-2     :     0.000235
      f+3     :     0.000075
      f-3     :     0.000080
  7 O s       :     4.016220  s :     4.016220
      pz      :     1.388609  p :     4.223892
      px      :     1.383785
      py      :     1.451499
      dz2     :     0.015831  d :     0.051939
      dxz     :     0.008384
      dyz     :     0.008798
      dx2y2   :     0.008895
      dxy     :     0.010032
      f0      :     0.000262  f :     0.001765
      f+1     :     0.000418
      f-1     :     0.000112
      f+2     :     0.000287
      f-2     :     0.000371
      f+3     :     0.000169
      f-3     :     0.000147
  8 C s       :     3.672745  s :     3.672745
      pz      :     0.962587  p :     2.701571
      px      :     0.948868
      py      :     0.790116
      dz2     :     0.028681  d :     0.266627
      dxz     :     0.100102
      dyz     :     0.025222
      dx2y2   :     0.043625
      dxy     :     0.068997
      f0      :     0.000777  f :     0.007513
      f+1     :     0.000868
      f-1     :     0.000972
      f+2     :     0.001467
      f-2     :     0.001021
      f+3     :     0.000788
      f-3     :     0.001620
  9 C s       :     2.953197  s :     2.953197
      pz      :     0.928197  p :     2.966891
      px      :     1.141522
      py      :     0.897172
      dz2     :    -0.016636  d :    -0.071340
      dxz     :     0.046443
      dyz     :    -0.063736
      dx2y2   :    -0.061352
      dxy     :     0.023941
      f0      :     0.000707  f :     0.005013
      f+1     :     0.000413
      f-1     :     0.000337
      f+2     :     0.000941
      f-2     :     0.000615
      f+3     :     0.000672
      f-3     :     0.001329
 10 C s       :     2.347573  s :     2.347573
      pz      :     0.593474  p :     1.655812
      px      :     0.553376
      py      :     0.508962
      dz2     :     0.047072  d :     0.357738
      dxz     :     0.097499
      dyz     :    -0.000547
      dx2y2   :     0.128868
      dxy     :     0.084846
      f0      :     0.000942  f :     0.008209
      f+1     :     0.001348
      f-1     :     0.000841
      f+2     :     0.001646
      f-2     :     0.001327
      f+3     :     0.000935
      f-3     :     0.001170
 11 C s       :     3.578756  s :     3.578756
      pz      :     0.563352  p :     1.869579
      px      :     0.772529
      py      :     0.533699
      dz2     :     0.085447  d :     0.337372
      dxz     :     0.051484
      dyz     :     0.036610
      dx2y2   :     0.090696
      dxy     :     0.073134
      f0      :     0.003265  f :     0.024799
      f+1     :     0.003630
      f-1     :     0.003567
      f+2     :     0.004615
      f-2     :     0.003485
      f+3     :     0.002680
      f-3     :     0.003557
 12 O s       :     4.094293  s :     4.094293
      pz      :     1.540912  p :     4.500644
      px      :     1.613482
      py      :     1.346251
      dz2     :     0.006359  d :     0.038636
      dxz     :     0.009946
      dyz     :     0.004638
      dx2y2   :     0.011806
      dxy     :     0.005887
      f0      :     0.000125  f :     0.001918
      f+1     :     0.000256
      f-1     :     0.000333
      f+2     :     0.000329
      f-2     :     0.000308
      f+3     :     0.000258
      f-3     :     0.000311
 13 O s       :     3.917053  s :     3.917053
      pz      :     1.426540  p :     4.395001
      px      :     1.362520
      py      :     1.605941
      dz2     :     0.016618  d :     0.048675
      dxz     :     0.005831
      dyz     :     0.006675
      dx2y2   :     0.008099
      dxy     :     0.011453
      f0      :     0.000325  f :     0.002046
      f+1     :     0.000319
      f-1     :     0.000310
      f+2     :     0.000382
      f-2     :     0.000295
      f+3     :     0.000218
      f-3     :     0.000196
 14 C s       :     3.399071  s :     3.399071
      pz      :     0.852183  p :     2.403938
      px      :     0.797849
      py      :     0.753906
      dz2     :     0.057552  d :     0.172632
      dxz     :     0.070699
      dyz     :     0.014492
      dx2y2   :     0.037075
      dxy     :    -0.007186
      f0      :     0.001479  f :     0.014334
      f+1     :     0.001508
      f-1     :     0.002827
      f+2     :     0.002086
      f-2     :     0.002085
      f+3     :     0.001797
      f-3     :     0.002553
 15 O s       :     4.059099  s :     4.059099
      pz      :     1.555155  p :     4.475595
      px      :     1.546987
      py      :     1.373453
      dz2     :     0.003687  d :     0.017501
      dxz     :     0.001415
      dyz     :     0.004294
      dx2y2   :     0.001374
      dxy     :     0.006732
      f0      :     0.000153  f :     0.001363
      f+1     :     0.000109
      f-1     :     0.000201
      f+2     :     0.000214
      f-2     :     0.000224
      f+3     :     0.000229
      f-3     :     0.000232
 16 H s       :     0.639679  s :     0.639679
      pz      :     0.101146  p :     0.097600
      px      :    -0.036451
      py      :     0.032905
      dz2     :     0.001744  d :     0.005153
      dxz     :     0.001175
      dyz     :     0.001319
      dx2y2   :     0.000362
      dxy     :     0.000553
 17 C s       :     3.134947  s :     3.134947
      pz      :     1.017491  p :     2.768276
      px      :     0.712250
      py      :     1.038534
      dz2     :     0.014086  d :     0.112513
      dxz     :     0.029414
      dyz     :     0.019931
      dx2y2   :     0.035095
      dxy     :     0.013987
      f0      :     0.000700  f :     0.008853
      f+1     :     0.001667
      f-1     :     0.000614
      f+2     :     0.001410
      f-2     :     0.000952
      f+3     :     0.001687
      f-3     :     0.001824
 18 H s       :     0.883244  s :     0.883244
      pz      :     0.015099  p :     0.041182
      px      :     0.012982
      py      :     0.013101
      dz2     :     0.000449  d :     0.001552
      dxz     :     0.000530
      dyz     :     0.000168
      dx2y2   :     0.000258
      dxy     :     0.000148
 19 H s       :     0.857625  s :     0.857625
      pz      :     0.011750  p :     0.038988
      px      :     0.006709
      py      :     0.020529
      dz2     :     0.000101  d :     0.001489
      dxz     :     0.000091
      dyz     :     0.000550
      dx2y2   :     0.000125
      dxy     :     0.000623
[...]
      dz2     :     1.200672  d :     5.527912
      dxz     :     1.081922
      dyz     :     1.097418
      dx2y2   :     1.090436
      dxy     :     1.057464
      f0      :     0.041125  f :     0.437489
      f+1     :     0.061624
      f-1     :     0.056585
      f+2     :     0.055273
      f-2     :     0.092449
      f+3     :     0.074802
      f-3     :     0.055630
      g0      :     0.002556  g :     0.028881
      g+1     :     0.002695
      g-1     :     0.002649
      g+2     :     0.002568
      g-2     :     0.004240
      g+3     :     0.004299
      g-3     :     0.003387
      g+4     :     0.002919
      g-4     :     0.003567
  1 C s       :     2.900291  s :     2.900291
      pz      :     0.914100  p :     2.381096
      px      :     0.721745
      py      :     0.745251
      dz2     :     0.259158  d :     0.912438
      dxz     :     0.205794
      dyz     :     0.209825
      dx2y2   :     0.121883
      dxy     :     0.115779
      f0      :     0.018061  f :     0.087732
      f+1     :     0.014775
      f-1     :     0.016433
      f+2     :     0.016077
      f-2     :     0.015410
      f+3     :     0.003500
      f-3     :     0.003476
  2 C s       :     2.889958  s :     2.889958
      pz      :     0.856008  p :     2.385655
      px      :     0.857506
      py      :     0.672141
      dz2     :     0.234460  d :     0.949248
      dxz     :     0.212186
      dyz     :     0.162459
      dx2y2   :     0.164251
      dxy     :     0.175892
      f0      :     0.012007  f :     0.090062
      f+1     :     0.022232
      f-1     :     0.005197
      f+2     :     0.017469
      f-2     :     0.017998
      f+3     :     0.007683
      f-3     :     0.007476
  3 C s       :     2.837522  s :     2.837522
      pz      :     0.707322  p :     2.373576
      px      :     0.693849
      py      :     0.972404
      dz2     :     0.123750  d :     0.985260
      dxz     :     0.107008
      dyz     :     0.243736
      dx2y2   :     0.244024
      dxy     :     0.266741
      f0      :     0.008520  f :     0.089485
      f+1     :     0.002912
      f-1     :     0.014584
      f+2     :     0.011571
      f-2     :     0.010484
      f+3     :     0.019511
      f-3     :     0.021905
  4 Brs       :     7.641553  s :     7.641553
      pz      :     5.774579  p :    16.992623
      px      :     5.665456
      py      :     5.552588
      dz2     :     2.017695  d :    10.178318
      dxz     :     2.026103
      dyz     :     2.047951
      dx2y2   :     2.054229
      dxy     :     2.032339
      f0      :     0.000581  f :     0.004594
      f+1     :     0.000289
      f-1     :     0.000545
      f+2     :     0.000265
      f-2     :     0.000905
      f+3     :     0.001001
      f-3     :     0.001007
  5 O s       :     3.374012  s :     3.374012
      pz      :     1.373416  p :     4.260128
      px      :     1.359470
      py      :     1.527243
      dz2     :     0.026905  d :     0.205576
      dxz     :     0.011395
      dyz     :     0.051121
      dx2y2   :     0.059402
      dxy     :     0.056754
      f0      :     0.000709  f :     0.007002
      f+1     :     0.000203
      f-1     :     0.001176
      f+2     :     0.000898
      f-2     :     0.000811
      f+3     :     0.001709
      f-3     :     0.001495
  6 O s       :     3.385780  s :     3.385780
      pz      :     1.497143  p :     4.264089
      px      :     1.377526
      py      :     1.389420
      dz2     :     0.053961  d :     0.200615
      dxz     :     0.051478
      dyz     :     0.056843
      dx2y2   :     0.016392
      dxy     :     0.021941
      f0      :     0.001155  f :     0.006986
      f+1     :     0.001365
      f-1     :     0.001569
      f+2     :     0.001003
      f-2     :     0.001432
      f+3     :     0.000234
      f-3     :     0.000229
  7 O s       :     3.379543  s :     3.379543
      pz      :     1.457753  p :     4.249255
      px      :     1.452904
      py      :     1.338598
      dz2     :     0.039857  d :     0.200722
      dxz     :     0.076251
      dyz     :     0.025491
      dx2y2   :     0.031355
      dxy     :     0.027767
      f0      :     0.000841  f :     0.007156
      f+1     :     0.001989
      f-1     :     0.000339
      f+2     :     0.001601
      f-2     :     0.001340
      f+3     :     0.000487
      f-3     :     0.000558
  8 C s       :     2.650853  s :     2.650853
      pz      :     0.784422  p :     2.507989
      px      :     0.966265
      py      :     0.757302
      dz2     :     0.106479  d :     0.745330
      dxz     :     0.214301
      dyz     :     0.080023
      dx2y2   :     0.159099
      dxy     :     0.185426
      f0      :     0.005338  f :     0.044246
      f+1     :     0.005723
      f-1     :     0.005063
      f+2     :     0.008355
      f-2     :     0.004961
      f+3     :     0.006014
      f-3     :     0.008793
  9 C s       :     2.693687  s :     2.693687
      pz      :     0.825594  p :     2.634323
      px      :     0.983329
      py      :     0.825400
      dz2     :     0.109210  d :     0.629027
      dxz     :     0.173240
      dyz     :     0.070306
      dx2y2   :     0.128811
      dxy     :     0.147460
      f0      :     0.005249  f :     0.033188
      f+1     :     0.004583
      f-1     :     0.001732
      f+2     :     0.006048
      f-2     :     0.002764
      f+3     :     0.005481
      f-3     :     0.007330
 10 C s       :     2.582403  s :     2.582403
      pz      :     0.858177  p :     2.559929
      px      :     0.824198
      py      :     0.877554
      dz2     :     0.169316  d :     0.898148
      dxz     :     0.205706
      dyz     :     0.165844
      dx2y2   :     0.189356
      dxy     :     0.167926
      f0      :     0.007506  f :     0.053337
      f+1     :     0.008519
      f-1     :     0.005603
      f+2     :     0.009474
      f-2     :     0.007093
      f+3     :     0.006617
      f-3     :     0.008524
 11 C s       :     2.616013  s :     2.616013
      pz      :     0.757775  p :     2.348796
      px      :     0.827989
      py      :     0.763033
      dz2     :     0.292918  d :     1.333109
      dxz     :     0.257924
      dyz     :     0.271073
      dx2y2   :     0.262678
      dxy     :     0.248516
      f0      :     0.019264  f :     0.155135
      f+1     :     0.023847
      f-1     :     0.025099
      f+2     :     0.027755
      f-2     :     0.020486
      f+3     :     0.016413
      f-3     :     0.022272
 12 O s       :     3.311168  s :     3.311168
      pz      :     1.429699  p :     4.282454
      px      :     1.489485
      py      :     1.363270
      dz2     :     0.042834  d :     0.245588
      dxz     :     0.045191
      dyz     :     0.052470
      dx2y2   :     0.046882
      dxy     :     0.058212
      f0      :     0.000626  f :     0.006724
      f+1     :     0.000626
      f-1     :     0.001044
      f+2     :     0.000986
      f-2     :     0.001557
      f+3     :     0.000922
      f-3     :     0.000963
 13 O s       :     3.181712  s :     3.181712
      pz      :     1.406006  p :     4.242255
      px      :     1.346734
      py      :     1.489516
      dz2     :     0.097242  d :     0.530609
      dxz     :     0.147242
      dyz     :     0.076089
      dx2y2   :     0.110288
      dxy     :     0.099749
      f0      :     0.000934  f :     0.007008
      f+1     :     0.001076
      f-1     :     0.001223
      f+2     :     0.001198
      f-2     :     0.000927
      f+3     :     0.000821
      f-3     :     0.000829
 14 C s       :     2.631724  s :     2.631724
      pz      :     0.866466  p :     2.433607
      px      :     0.766759
      py      :     0.800382
      dz2     :     0.158737  d :     1.043144
      dxz     :     0.217714
      dyz     :     0.253433
      dx2y2   :     0.213331
      dxy     :     0.199930
      f0      :     0.010081  f :     0.088108
      f+1     :     0.008182
      f-1     :     0.016157
      f+2     :     0.011535
      f-2     :     0.013781
      f+3     :     0.012335
      f-3     :     0.016037
 15 O s       :     3.282645  s :     3.282645
      pz      :     1.484002  p :     4.270539
      px      :     1.401030
      py      :     1.385506
      dz2     :     0.096779  d :     0.454411
      dxz     :     0.072299
      dyz     :     0.096730
      dx2y2   :     0.095908
      dxy     :     0.092695
      f0      :     0.000666  f :     0.005803
      f+1     :     0.000488
      f-1     :     0.001198
      f+2     :     0.000825
      f-2     :     0.000875
      f+3     :     0.000814
      f-3     :     0.000937
 16 H s       :     0.462818  s :     0.462818
      pz      :     0.374972  p :     0.652469
      px      :     0.157973
      py      :     0.119524
      dz2     :     0.016598  d :     0.050280
      dxz     :     0.009568
      dyz     :     0.017539
      dx2y2   :     0.002320
      dxy     :     0.004256
 17 C s       :     2.633862  s :     2.633862
      pz      :     0.904011  p :     2.545027
      px      :     0.717143
      py      :     0.923873
      dz2     :     0.086203  d :     0.581254
      dxz     :     0.146044
      dyz     :     0.084221
      dx2y2   :     0.159218
      dxy     :     0.105568
      f0      :     0.005591  f :     0.062129
      f+1     :     0.011149
      f-1     :     0.005400
      f+2     :     0.008149
      f-2     :     0.007004
      f+3     :     0.010906
      f-3     :     0.013930
 18 H s       :     0.706007  s :     0.706007
      pz      :     0.111361  p :     0.256024
      px      :     0.053494
      py      :     0.091169
      dz2     :     0.009379  d :     0.029070
      dxz     :     0.005792
      dyz     :     0.008045
      dx2y2   :     0.003272
      dxy     :     0.002582
 19 H s       :     0.692712  s :     0.692712
      pz      :     0.080132  p :     0.265602
      px      :     0.051107
      py      :     0.134363
      dz2     :     0.003248  d :     0.029017
      dxz     :     0.000561
      dyz     :     0.009818
      dx2y2   :     0.008235
      dxy     :     0.007155
 20 H s       :     0.694069  s :     0.694069
      pz      :     0.108359  p :     0.265557
      px      :     0.081921
      py      :     0.075277
      dz2     :     0.006611  d :     0.028986
      dxz     :     0.008374
      dyz     :     0.005339
      dx2y2   :     0.004413
      dxy     :     0.004249
 21 H s       :     0.717827  s :     0.717827
      pz      :     0.096975  p :     0.293966
      px      :     0.089919
      py      :     0.107071
      dz2     :     0.005704  d :     0.029875
      dxz     :     0.004825
      dyz     :     0.007263
      dx2y2   :     0.006334
      dxy     :     0.005749
 22 H s       :     0.641805  s :     0.641805
      pz      :     0.077908  p :     0.270503
      px      :     0.076420
      py      :     0.116175
      dz2     :     0.004806  d :     0.030382
      dxz     :     0.002276
      dyz     :     0.008885
      dx2y2   :     0.006934
      dxy     :     0.007481
 23 H s       :     0.672042  s :     0.672042
      pz      :     0.091218  p :     0.263818
      px      :     0.084425
      py      :     0.088175
      dz2     :     0.006236  d :     0.030237
      dxz     :     0.005247
      dyz     :     0.008972
      dx2y2   :     0.005030
      dxy     :     0.004752
 24 H s       :     0.686914  s :     0.686914
      pz      :     0.090681  p :     0.265544
      px      :     0.099070
      py      :     0.075792
      dz2     :     0.006054  d :     0.028639
      dxz     :     0.007165
      dyz     :     0.006060
      dx2y2   :     0.004735
      dxy     :     0.004624


                      *****************************
                      * MAYER POPULATION ANALYSIS *
                      *****************************

  NA   - Mulliken gross atomic population
  ZA   - Total nuclear charge
  QA   - Mulliken gross atomic charge
  VA   - Mayer's total valence
  BVA  - Mayer's bonded valence
  FA   - Mayer's free valence

  ATOM       NA         ZA         QA         VA         BVA        FA
  0 Re    15.4078    15.0000    -0.4078     6.9118     6.9118    -0.0000
  1 C      5.1937     6.0000     0.8063     3.1514     3.1514    -0.0000
  2 C      5.3190     6.0000     0.6810     3.2485     3.2485    -0.0000
  3 C      5.8043     6.0000     0.1957     3.4580     3.4580    -0.0000
  4 Br    35.5597    35.0000    -0.5597     0.7363     0.7363    -0.0000
  5 O      8.3910     8.0000    -0.3910     2.0755     2.0755    -0.0000
  6 O      8.3219     8.0000    -0.3219     2.1859     2.1859    -0.0000
  7 O      8.2938     8.0000    -0.2938     2.1994     2.1994    -0.0000
  8 C      6.6485     6.0000    -0.6485     4.3615     4.3615    -0.0000
  9 C      5.8538     6.0000     0.1462     3.7558     3.7558    -0.0000
 10 C      4.3693     6.0000     1.6307     2.9412     2.9412     0.0000
 11 C      5.8105     6.0000     0.1895     3.1680     3.1680    -0.0000
 12 O      8.6355     8.0000    -0.6355     1.6908     1.6908    -0.0000
 13 O      8.3628     8.0000    -0.3628     1.9732     1.9732    -0.0000
 14 C      5.9900     6.0000     0.0100     4.0131     4.0131    -0.0000
 15 O      8.5536     8.0000    -0.5536     1.6609     1.6609     0.0000
 16 H      0.7424     1.0000     0.2576     1.0663     1.0663    -0.0000
 17 C      6.0246     6.0000    -0.0246     3.8474     3.8474    -0.0000
 18 H      0.9260     1.0000     0.0740     1.0283     1.0283     0.0000
 19 H      0.8981     1.0000     0.1019     1.0443     1.0443     0.0000
 20 H      0.9009     1.0000     0.0991     1.0283     1.0283     0.0000
 21 H      1.0581     1.0000    -0.0581     1.1485     1.1485    -0.0000
 22 H      1.0329     1.0000    -0.0329     0.8423     0.8423     0.0000
 23 H      0.9309     1.0000     0.0691     0.8785     0.8785     0.0000
 24 H      0.9711     1.0000     0.0289     1.0775     1.0775    -0.0000

  Mayer bond orders larger than 0.100000
B(  0-Re,  1-C ) :   1.3209 B(  0-Re,  2-C ) :   1.2833 B(  0-Re,  3-C ) :   1.5539 
B(  0-Re,  4-Br) :   0.3380 B(  0-Re,  5-O ) :   0.1188 B(  0-Re,  6-O ) :   0.1638 
B(  0-Re,  7-O ) :   0.1152 B(  0-Re,  8-C ) :   0.2627 B(  0-Re,  9-C ) :   0.3638 
B(  0-Re, 14-C ) :   0.5525 B(  0-Re, 15-O ) :   0.6119 B(  0-Re, 16-H ) :   0.1239 
B(  1-C ,  3-C ) :  -0.1469 B(  1-C ,  6-O ) :   1.9607 B(  2-C ,  7-O ) :   1.9882 
B(  3-C ,  5-O ) :   1.8082 B(  3-C ,  8-C ) :  -0.1259 B(  3-C , 14-C ) :   0.2087 
B(  8-C ,  9-C ) :   1.9572 B(  8-C , 10-C ) :   0.4495 B(  8-C , 11-C ) :   0.1798 
B(  8-C , 14-C ) :   0.1533 B(  8-C , 16-H ) :   0.1555 B(  8-C , 24-H ) :   1.1315 
B(  9-C , 10-C ) :  -0.1399 B(  9-C , 16-H ) :   0.3958 B(  9-C , 21-H ) :   1.0600 
B( 10-C , 11-C ) :   0.5975 B( 10-C , 13-O ) :   0.1113 B( 10-C , 14-C ) :   0.9350 
B( 10-C , 15-O ) :   0.1105 B( 10-C , 22-H ) :   0.7150 B( 11-C , 12-O ) :   1.3527 
B( 11-C , 13-O ) :   0.7563 B( 11-C , 14-C ) :   0.2929 B( 12-O , 13-O ) :   0.1318 
B( 13-O , 17-C ) :   0.8639 B( 14-C , 15-O ) :   0.5817 B( 14-C , 23-H ) :   0.9169 
B( 15-O , 16-H ) :   0.3439 B( 15-O , 23-H ) :  -0.1118 B( 17-C , 18-H ) :   1.0311 
B( 17-C , 19-H ) :   0.9646 B( 17-C , 20-H ) :   0.9515 

-------
TIMINGS
-------

Total SCF time: 0 days 0 hours 0 min 26 sec 

Total time                  ....      26.912 sec
Sum of individual times     ....      26.012 sec  ( 96.7%)

Fock matrix formation       ....      18.416 sec  ( 68.4%)
  Split-RI-J                ....       6.830 sec  ( 37.1% of F)
  XC integration            ....      10.876 sec  ( 59.1% of F)
    Basis function eval.    ....       1.081 sec  (  9.9% of XC)
    Density eval.           ....       3.740 sec  ( 34.4% of XC)
    XC-Functional eval.     ....       0.133 sec  (  1.2% of XC)
    XC-Potential eval.      ....       4.909 sec  ( 45.1% of XC)
Diagonalization             ....       2.911 sec  ( 10.8%)
Density matrix formation    ....       0.087 sec  (  0.3%)
Population analysis         ....       0.136 sec  (  0.5%)
Initial guess               ....       2.142 sec  (  8.0%)
Orbital Transformation      ....       0.000 sec  (  0.0%)
Orbital Orthonormalization  ....       0.000 sec  (  0.0%)
DIIS solution               ....       1.587 sec  (  5.9%)
Grid generation             ....       0.734 sec  (  2.7%)


-------------------------------------------------------------------------------
                          DFT DISPERSION CORRECTION                            
                                                                               
                              DFTD3 V3.1  Rev 1                                
                          USING Becke-Johnson damping                          
-------------------------------------------------------------------------------
The TPSS functional is recognized
Active option DFTDOPT                   ...         4   

molecular C6(AA) [au] = 11878.481105 


            DFT-D V3
 parameters
 s6 scaling factor         :     1.0000 
 a1 scaling factor         :     0.4535 
 s8 scaling factor         :     1.9435 
 a2 scaling factor         :     4.4752 
 ad hoc parameters k1-k3   :    16.0000     1.3333    -4.0000 

 Edisp/kcal,au: -29.627871514045  -0.047215013603 
 E6   /kcal   : -13.422385387 
 E8   /kcal   : -16.205486127 
 % E8         :  54.696761188 

-------------------------   ----------------
Dispersion correction           -0.047215014
-------------------------   ----------------


-------------------------   --------------------
FINAL SINGLE POINT ENERGY     -3452.087849444434
-------------------------   --------------------


                            ***************************************
                            *     ORCA property calculations      *
                            ***************************************

                                    ---------------------
                                    Active property flags
                                    ---------------------
   (+) Dipole Moment


------------------------------------------------------------------------------
                       ORCA ELECTRIC PROPERTIES CALCULATION
------------------------------------------------------------------------------

Dipole Moment Calculation                       ... on
Quadrupole Moment Calculation                   ... off
Polarizability Calculation                      ... off
GBWName                                         ... TMB20_T3.gbw
Electron density file                           ... TMB20_T3.scfp
The origin for moment calculation is the CENTER OF MASS  = (-0.285343, -0.015915  0.016516)

-------------
DIPOLE MOMENT
-------------
                                X             Y             Z
Electronic contribution:   -122.80711      28.87568       0.60407
Nuclear contribution   :    124.94821     -28.06424      -0.72382
                        -----------------------------------------
Total Dipole Moment    :      2.14109       0.81143      -0.11974
                        -----------------------------------------
Magnitude (a.u.)       :      2.29282
Magnitude (Debye)      :      5.82789



--------------------
Rotational spectrum 
--------------------
 
Rotational constants in cm-1:     0.017375     0.006623     0.006112 
Rotational constants in MHz :   520.879987   198.539547   183.234187 

 Dipole components along the rotational axes: 
x,y,z [a.u.] :    -2.159112    -0.770440     0.041157 
x,y,z [Debye]:    -5.488026    -1.958303     0.104612 

 

Timings for individual modules:

Sum of individual times         ...       30.812 sec (=   0.514 min)
GTO integral calculation        ...        3.535 sec (=   0.059 min)  11.5 %
SCF iterations                  ...       27.277 sec (=   0.455 min)  88.5 %
                             ****ORCA TERMINATED NORMALLY****
TOTAL RUN TIME: 0 days 0 hours 0 minutes 31 seconds 450 msec
