
                                 *****************
                                 * O   R   C   A *
                                 *****************

           --- An Ab Initio, DFT and Semiempirical electronic structure package ---

                  #######################################################
                  #                        -***-                        #
                  #          Department of theory and spectroscopy      #
                  #               Directorship: Frank Neese             #
                  #        Max Planck Institute fuer Kohlenforschung    #
                  #                Kaiser Wilhelm Platz 1               #
                  #                 D-45470 Muelheim/Ruhr               #
                  #                      Germany                        #
                  #                                                     #
                  #                  All rights reserved                #
                  #                        -***-                        #
                  #######################################################


                         Program Version 4.2.0 -  RELEASE  -


 With contributions from (in alphabetic order):
   Daniel Aravena         : Magnetic Suceptibility
   Michael Atanasov       : Ab Initio Ligand Field Theory (pilot matlab implementation)
   Alexander A. Auer      : GIAO ZORA, VPT2
   Ute Becker             : Parallelization
   Giovanni Bistoni       : ED, misc. LED, open-shell LED, HFLED
   Martin Brehm           : Molecular dynamics
   Dmytro Bykov           : SCF Hessian
   Vijay G. Chilkuri      : MRCI spin determinant printing, contributions to CSF-ICE
   Dipayan Datta          : RHF DLPNO-CCSD density
   Achintya Kumar Dutta   : EOM-CC, STEOM-CC
   Dmitry Ganyushin       : Spin-Orbit,Spin-Spin,Magnetic field MRCI
   Miquel Garcia          : C-PCM Hessian, Gaussian charge scheme
   Yang Guo               : DLPNO-NEVPT2, CIM, IAO-localization
   Andreas Hansen         : Spin unrestricted coupled pair/coupled cluster methods
   Benjamin Helmich-Paris : CASSCF linear response (MC-RPA)
   Lee Huntington         : MR-EOM, pCC
   Robert Izsak           : Overlap fitted RIJCOSX, COSX-SCS-MP3, EOM
   Christian Kollmar      : KDIIS, OOCD, Brueckner-CCSD(T), CCSD density
   Simone Kossmann        : Meta GGA functionals, TD-DFT gradient, OOMP2, MP2 Hessian
   Martin Krupicka        : AUTO-CI
   Lucas Lang             : DCDCAS
   Dagmar Lenk            : GEPOL surface, SMD
   Dimitrios Liakos       : Extrapolation schemes; Compound Job, initial MDCI parallelization
   Dimitrios Manganas     : Further ROCIS development; embedding schemes
   Dimitrios Pantazis     : SARC Basis sets
   Taras Petrenko         : DFT Hessian,TD-DFT gradient, ASA, ECA, R-Raman, ABS, FL, XAS/XES, NRVS
   Peter Pinski           : DLPNO-MP2, DLPNO-MP2 Gradient
   Christoph Reimann      : Effective Core Potentials
   Marius Retegan         : Local ZFS, SOC
   Christoph Riplinger    : Optimizer, TS searches, QM/MM, DLPNO-CCSD(T), (RO)-DLPNO pert. Triples
   Tobias Risthaus        : Range-separated hybrids, TD-DFT gradient, RPA, STAB
   Michael Roemelt        : Original ROCIS implementation
   Masaaki Saitow         : Open-shell DLPNO-CCSD energy and density
   Barbara Sandhoefer     : DKH picture change effects
   Avijit Sen             : IP-ROCIS
   Kantharuban Sivalingam : CASSCF convergence, NEVPT2, FIC-MRCI
   Bernardo de Souza      : ESD, SOC TD-DFT
   Georgi Stoychev        : AutoAux, RI-MP2 NMR
   Willem Van den Heuvel  : Paramagnetic NMR
   Boris Wezisla          : Elementary symmetry handling
   Frank Wennmohs         : Technical directorship


 We gratefully acknowledge several colleagues who have allowed us to
 interface, adapt or use parts of their codes:
   Stefan Grimme, W. Hujo, H. Kruse,             : VdW corrections, initial TS optimization,
                  C. Bannwarth                     DFT functionals, gCP, sTDA/sTD-DF
   Ed Valeev, F. Pavosevic, A. Kumar             : LibInt (2-el integral package), F12 methods
   Garnet Chan, S. Sharma, J. Yang, R. Olivares  : DMRG
   Ulf Ekstrom                                   : XCFun DFT Library
   Mihaly Kallay                                 : mrcc  (arbitrary order and MRCC methods)
   Andreas Klamt, Michael Diedenhofen            : otool_cosmo (COSMO solvation model)
   Jiri Pittner, Ondrej Demel                    : Mk-CCSD
   Frank Weinhold                                : gennbo (NPA and NBO analysis)
   Christopher J. Cramer and Donald G. Truhlar   : smd solvation model
   Lars Goerigk                                  : TD-DFT with DH, B97 family of functionals
   V. Asgeirsson, H. Jonsson                     : NEB implementation
   FAccTs GmbH                                   : IRC, NEB, NEB-TS, Multilevel, MM, QM/MM, CI optimization
   S Lehtola, MJT Oliveira, MAL Marques          : LibXC Library


 Your calculation uses the libint2 library for the computation of 2-el integrals
 For citations please refer to: http://libint.valeyev.net

 Your ORCA version has been built with support for libXC version: 4.2.3
 For citations please refer to: https://tddft.org/programs/libxc/

 This ORCA versions uses:
   CBLAS   interface :  Fast vector & matrix operations
   LAPACKE interface :  Fast linear algebra routines
   SCALAPACK package :  Parallel linear algebra routines


Your calculation utilizes the atom-pairwise dispersion correction
with the Becke-Johnson damping scheme (D3BJ)
Cite in your paper:
S.Grimme, S.Ehrlich, L.Goerigk, J Comput Chem, (2011), 32, 1456–1465 
S.Grimme, J.Antony, S.Ehrlich and H.Krieg, J.Chem.Phys., 132, (2010), 154104 
   

----- Orbital basis set information -----
Your calculation utilizes the basis: def2-TZVPPD
   F. Weigend and R. Ahlrichs, Phys. Chem. Chem. Phys. 7, 3297 (2005).
   D. Rappoport and F. Furche, J. Chem. Phys. 133 134105 (2010).

----- AuxJ basis set information -----
Your calculation utilizes the auxiliary basis: def2/J
   F. Weigend, Phys. Chem. Chem. Phys. 8, 1057 (2006).

cite the ECPs for Ir [Def2-ECP] as follows:
Ce-Yb(ecp-28): M. Dolg, H. Stoll, H.Preuss, J. Chem. Phys., 1989, 90, 1730-1734.
Y-Cd(ecp-28), Hf-Hg(ecp-46): D. Andrae,U. Haeussermann, M. Dolg, H. Stoll, H. Preuss, Theor. Chim. Acta, 1990, 77, 123-141.
In-Sb(ecp-28), Tl-Bi(ecp-46): B. Metz, H. Stoll, M. Dolg, J. Chem. Phys., 2000, 113, 2563-2569.
Te-Xe(ecp-28), Po-Rn(ecp-46): K. A. Peterson, D. Figgen, E. Goll, H. Stoll, M. Dolg, J. Chem. Phys., 2003, 119, 11113-11123.
Rb(ecp-28), Cs(ecp-46): T. Leininger, A. Nicklass, W. Kuechle, H. Stoll, M. Dolg, A. Bergner, Chem. Phys. Lett., 1996, 255, 274-280.
Sr(ecp-28), Ba(ecp-46): M. Kaupp, P. V. Schleyer, H. Stoll and H. Preuss, J. Chem. Phys., 1991, 94, 1360-1366.
La(ecp-46): M. Dolg, H. Stoll, A. Savin, H. Preuss, Theor. Chim. Acta, 1989, 75, 173-194.
Lu(ecp-28): X. Cao, M. Dolg, J. Chem. Phys., 2001, 115, 7348-7355.

ECP parameters for Ir [Def2-ECP] have been obtained from:
TURBOMOLE (7.0.2)

================================================================================
                                        WARNINGS
                       Please study these warnings very carefully!
================================================================================


INFO   : the flag for use of LIBINT has been found!

================================================================================
                                       INPUT FILE
================================================================================
NAME = TMB31_T1.in
|  1> #
|  2> # TMB31_T1 TPSS-D3BJ/Def2-TZVPPD
|  3> #
|  4> ! tpss d3bj def2-tzvppd def2/j grid4 nofinalgrid
|  5> 
|  6> *xyz 1 1
|  7> Ir       0.050361    0.056236   -0.150076 
|  8> C        0.978842   -1.302743   -1.517387 
|  9> C       -1.864665    1.028637    0.563211 
| 10> C       -1.426558    0.128925    1.555248 
| 11> C       -1.389999   -1.187568    0.972706 
| 12> C       -1.852948   -1.076424   -0.368776 
| 13> C       -2.115280    0.291316   -0.640524 
| 14> H        0.395138   -1.326753   -2.435403 
| 15> H        2.003015   -1.039631   -1.784042 
| 16> H        0.978935   -2.299217   -1.075482 
| 17> H       -1.949414   -1.889112   -1.072248 
| 18> H       -2.488115    0.695321   -1.568578 
| 19> H       -1.982151    2.094988    0.682898 
| 20> H       -1.179131    0.379256    2.575311 
| 21> H       -1.144965   -2.105263    1.484015 
| 22> C        0.981659    2.033847   -0.552795 
| 23> H        0.609290    0.819803   -1.428069 
| 24> H        0.362656    2.677374   -1.174650 
| 25> H        1.003724    2.445002    0.454509 
| 26> H        1.994491    2.026607   -0.953376 
| 27> P        1.998129   -0.331589    0.938590 
| 28> H        2.205383    0.285042    2.190624 
| 29> H        2.302734   -1.672090    1.247762 
| 30> H        3.172367    0.056392    0.263634 
| 31> *
| 32> 
| 33> %maxcore 5000
| 34> 
| 35> %pal
| 36> nprocs = 24
| 37> end
| 38> 
| 39> 
| 40>                          ****END OF INPUT****
================================================================================

                       ****************************
                       * Single Point Calculation *
                       ****************************

---------------------------------
CARTESIAN COORDINATES (ANGSTROEM)
---------------------------------
  Ir     0.050361    0.056236   -0.150076
  C      0.978842   -1.302743   -1.517387
  C     -1.864665    1.028637    0.563211
  C     -1.426558    0.128925    1.555248
  C     -1.389999   -1.187568    0.972706
  C     -1.852948   -1.076424   -0.368776
  C     -2.115280    0.291316   -0.640524
  H      0.395138   -1.326753   -2.435403
  H      2.003015   -1.039631   -1.784042
  H      0.978935   -2.299217   -1.075482
  H     -1.949414   -1.889112   -1.072248
  H     -2.488115    0.695321   -1.568578
  H     -1.982151    2.094988    0.682898
  H     -1.179131    0.379256    2.575311
  H     -1.144965   -2.105263    1.484015
  C      0.981659    2.033847   -0.552795
  H      0.609290    0.819803   -1.428069
  H      0.362656    2.677374   -1.174650
  H      1.003724    2.445002    0.454509
  H      1.994491    2.026607   -0.953376
  P      1.998129   -0.331589    0.938590
  H      2.205383    0.285042    2.190624
  H      2.302734   -1.672090    1.247762
  H      3.172367    0.056392    0.263634

----------------------------
CARTESIAN COORDINATES (A.U.)
----------------------------
  NO LB      ZA    FRAG     MASS         X           Y           Z
   0 Ir   17.0000*   0   192.220    0.095168    0.106271   -0.283603
   1 C     6.0000    0    12.011    1.849743   -2.461827   -2.867446
   2 C     6.0000    0    12.011   -3.523706    1.943842    1.064315
   3 C     6.0000    0    12.011   -2.695804    0.243633    2.938993
   4 C     6.0000    0    12.011   -2.626717   -2.244178    1.838148
   5 C     6.0000    0    12.011   -3.501564   -2.034147   -0.696886
   6 C     6.0000    0    12.011   -3.997300    0.550507   -1.210415
   7 H     1.0000    0     1.008    0.746703   -2.507200   -4.602245
   8 H     1.0000    0     1.008    3.785150   -1.964618   -3.371351
   9 H     1.0000    0     1.008    1.849919   -4.344890   -2.032366
  10 H     1.0000    0     1.008   -3.683859   -3.569904   -2.026255
  11 H     1.0000    0     1.008   -4.701856    1.313966   -2.964183
  12 H     1.0000    0     1.008   -3.745723    3.958954    1.290490
  13 H     1.0000    0     1.008   -2.228235    0.716690    4.866632
  14 H     1.0000    0     1.008   -2.163670   -3.978371    2.804382
  15 C     6.0000    0    12.011    1.855067    3.843414   -1.044631
  16 H     1.0000    0     1.008    1.151391    1.549203   -2.698659
  17 H     1.0000    0     1.008    0.685321    5.059504   -2.219767
  18 H     1.0000    0     1.008    1.896763    4.620384    0.858898
  19 H     1.0000    0     1.008    3.769042    3.829732   -1.801620
  20 P    15.0000    0    30.974    3.775917   -0.626612    1.773678
  21 H     1.0000    0     1.008    4.167570    0.538651    4.139679
  22 H     1.0000    0     1.008    4.351537   -3.159792    2.357928
  23 H     1.0000    0     1.008    5.994905    0.106565    0.498196
* core charge reduced due to ECP

--------------------------------
INTERNAL COORDINATES (ANGSTROEM)
--------------------------------
 Ir     0   0   0     0.000000000000     0.00000000     0.00000000
 C      1   0   0     2.139729015675     0.00000000     0.00000000
 C      1   2   0     2.263109946478   147.29684165     0.00000000
 C      3   1   2     1.409097880121    71.60618925   109.95483900
 C      4   3   1     1.440085261814   107.86687635   299.51713212
 C      5   4   3     1.423463635525   107.55290156   358.13589628
 C      6   5   4     1.418935432403   108.41371098     2.61785804
 H      2   1   3     1.088136120149   108.68430622    28.89272371
 H      2   1   3     1.090533423375   114.23846180   149.07972475
 H      2   1   3     1.090064434036   108.75811861   270.61756156
 H      6   5   4     1.079185030143   125.77369162   180.32651451
 H      7   6   5     1.078661301877   126.13625043   180.71690752
 H      3   1   2     1.079459306026   123.47003648   231.36290723
 H      4   3   1     1.079080281471   126.06378854   120.50322017
 H      5   4   3     1.078722701931   126.28049873   183.31563958
 C      1   2   3     2.222710918020   105.51514942   240.74066631
 H     16   1   2     1.542292475885    45.67694378    34.08344470
 H     16   1   2     1.088115506168   113.04101722    99.90861638
 H     16   1   2     1.088207997887   100.19195419   215.15867565
 H     16   1   2     1.089195214544   116.76534690   332.51219958
 P      1   2   3     2.264818330905    79.93455623   160.91820452
 H     21   1   2     1.410949023825   118.55720729   181.75620396
 H     21   1   2     1.409011874545   117.02035915   303.05502782
 H     21   1   2     1.408875345423   116.06190261    61.93680212

---------------------------
INTERNAL COORDINATES (A.U.)
---------------------------
 Ir     0   0   0     0.000000000000     0.00000000     0.00000000
 C      1   0   0     4.043501840431     0.00000000     0.00000000
 C      1   2   0     4.276658009796   147.29684165     0.00000000
 C      3   1   2     2.662809089318    71.60618925   109.95483900
 C      4   3   1     2.721366754325   107.86687635   299.51713212
 C      5   4   3     2.689956432737   107.55290156   358.13589628
 C      6   5   4     2.681399368958   108.41371098     2.61785804
 H      2   1   3     2.056279263508   108.68430622    28.89272371
 H      2   1   3     2.060809510066   114.23846180   149.07972475
 H      2   1   3     2.059923248656   108.75811861   270.61756156
 H      6   5   4     2.039364154797   125.77369162   180.32651451
 H      7   6   5     2.038374451806   126.13625043   180.71690752
 H      3   1   2     2.039882461102   123.47003648   231.36290723
 H      4   3   1     2.039166208494   126.06378854   120.50322017
 H      5   4   3     2.038490481094   126.28049873   183.31563958
 C      1   2   3     4.200314909935   105.51514942   240.74066631
 H     16   1   2     2.914510397831    45.67694378    34.08344470
 H     16   1   2     2.056240308730   113.04101722    99.90861638
 H     16   1   2     2.056415092750   100.19195419   215.15867565
 H     16   1   2     2.058280661865   116.76534690   332.51219958
 P      1   2   3     4.279886388496    79.93455623   160.91820452
 H     21   1   2     2.666307243953   118.55720729   181.75620396
 H     21   1   2     2.662646562334   117.02035915   303.05502782
 H     21   1   2     2.662388559683   116.06190261    61.93680212

---------------------
BASIS SET INFORMATION
---------------------
There are 4 groups of distinct atoms

 Group   1 Type Ir  : 8s8p6d2f1g contracted to 6s5p3d2f1g pattern {311111/41111/411/11/1}
 Group   2 Type C   : 12s6p3d1f contracted to 6s3p3d1f pattern {621111/411/111/1}
 Group   3 Type H   : 5s3p1d contracted to 3s3p1d pattern {311/111/1}
 Group   4 Type P   : 15s9p4d1f contracted to 6s5p4d1f pattern {732111/51111/1111/1}

Atom   0Ir   basis set group =>   1
Atom   1C    basis set group =>   2
Atom   2C    basis set group =>   2
Atom   3C    basis set group =>   2
Atom   4C    basis set group =>   2
Atom   5C    basis set group =>   2
Atom   6C    basis set group =>   2
Atom   7H    basis set group =>   3
Atom   8H    basis set group =>   3
Atom   9H    basis set group =>   3
Atom  10H    basis set group =>   3
Atom  11H    basis set group =>   3
Atom  12H    basis set group =>   3
Atom  13H    basis set group =>   3
Atom  14H    basis set group =>   3
Atom  15C    basis set group =>   2
Atom  16H    basis set group =>   3
Atom  17H    basis set group =>   3
Atom  18H    basis set group =>   3
Atom  19H    basis set group =>   3
Atom  20P    basis set group =>   4
Atom  21H    basis set group =>   3
Atom  22H    basis set group =>   3
Atom  23H    basis set group =>   3
---------------------------------
AUXILIARY/J BASIS SET INFORMATION
---------------------------------
There are 4 groups of distinct atoms

 Group   1 Type Ir  : 11s5p5d3f3g contracted to 8s5p5d2f3g pattern {41111111/11111/11111/21/111}
 Group   2 Type C   : 12s5p4d2f1g contracted to 6s4p3d1f1g pattern {711111/2111/211/2/1}
 Group   3 Type H   : 5s2p1d contracted to 3s1p1d pattern {311/2/1}
 Group   4 Type P   : 14s5p5d2f1g contracted to 8s4p3d1f1g pattern {71111111/2111/311/2/1}

Atom   0Ir   basis set group =>   1
Atom   1C    basis set group =>   2
Atom   2C    basis set group =>   2
Atom   3C    basis set group =>   2
Atom   4C    basis set group =>   2
Atom   5C    basis set group =>   2
Atom   6C    basis set group =>   2
Atom   7H    basis set group =>   3
Atom   8H    basis set group =>   3
Atom   9H    basis set group =>   3
Atom  10H    basis set group =>   3
Atom  11H    basis set group =>   3
Atom  12H    basis set group =>   3
Atom  13H    basis set group =>   3
Atom  14H    basis set group =>   3
Atom  15C    basis set group =>   2
Atom  16H    basis set group =>   3
Atom  17H    basis set group =>   3
Atom  18H    basis set group =>   3
Atom  19H    basis set group =>   3
Atom  20P    basis set group =>   4
Atom  21H    basis set group =>   3
Atom  22H    basis set group =>   3
Atom  23H    basis set group =>   3
-------------------------
ECP PARAMETER INFORMATION
-------------------------

 Group 1, Type Ir ECP Def2-ECP (replacing 60 core electrons, lmax=3)

Atom   0Ir   ECP group =>   1



           ************************************************************
           *        Program running with 24 parallel MPI-processes    *
           *              working on a common directory               *
           ************************************************************
------------------------------------------------------------------------------
                           ORCA GTO INTEGRAL CALCULATION
                           -- RI-GTO INTEGRALS CHOSEN --
------------------------------------------------------------------------------

                         BASIS SET STATISTICS AND STARTUP INFO

Gaussian basis set:
 # of primitive gaussian shells          ...  343
 # of primitive gaussian functions       ...  803
 # of contracted shells                  ...  229
 # of contracted basis functions         ...  621
 Highest angular momentum                ...    4
 Maximum contraction depth               ...    7
Auxiliary gaussian basis set:
 # of primitive gaussian shells          ...  342
 # of primitive gaussian functions       ...  906
 # of contracted shells                  ...  220
 # of contracted aux-basis functions     ...  648
 Highest angular momentum                ...    4
 Maximum contraction depth               ...    7
Ratio of auxiliary to basis functions    ...  1.04
Integral package used                  ... LIBINT
 One Electron integrals                  
   ECP integrals                         ... done
 Ordering auxiliary basis shells         ... done
 Integral threshhold             Thresh  ...  1.000e-10
 Primitive cut-off               TCut    ...  1.000e-11
 Pre-screening matrix                    ... done
 Shell pair data                         ... 
 Ordering of the shell pairs             ... done (   0.004 sec) 24109 of 26335 pairs
 Determination of significant pairs      ... done (   0.000 sec)
 Creation of shell pair data             ... done (   0.002 sec)
 Storage of shell pair data              ... done (   0.013 sec)
 Shell pair data done in (   0.020 sec)
 Computing two index integrals           ... done
 Cholesky decomposition of the V-matrix  ... done


Timings:
 Total evaluation time                   ...   2.657 sec (  0.044 min)
 One electron matrix time                ...   2.359 sec (  0.039 min) = 88.8%
 Schwartz matrix evaluation time         ...   0.236 sec (  0.004 min) =  8.9%
 Two index repulsion integral time       ...   0.009 sec (  0.000 min) =  0.4%
 Cholesky decomposition of V             ...   0.007 sec (  0.000 min) =  0.3%
 Three index repulsion integral time     ...   0.000 sec (  0.000 min) =  0.0%



           ************************************************************
           *        Program running with 24 parallel MPI-processes    *
           *              working on a common directory               *
           ************************************************************
-------------------------------------------------------------------------------
                                 ORCA SCF
-------------------------------------------------------------------------------

------------
SCF SETTINGS
------------
Hamiltonian:
 Density Functional     Method          .... DFT(GTOs)
 Exchange Functional    Exchange        .... TPSS
 Correlation Functional Correlation     .... TPSS
 LDA part of GGA corr.  LDAOpt          .... PW91-LDA
 Gradients option       PostSCFGGA      .... off
   Density functional embedding theory  .... OFF
   NL short-range parameter             ....  5.000000
 RI-approximation to the Coulomb term is turned on
   Number of auxiliary basis functions  .... 648


General Settings:
 Integral files         IntName         .... TMB31_T1
 Hartree-Fock type      HFTyp           .... RHF
 Total Charge           Charge          ....    1
 Multiplicity           Mult            ....    1
 Number of Electrons    NEL             ....   88
 Basis Dimension        Dim             ....  621
 Nuclear Repulsion      ENuc            ....    712.9282020928 Eh

Convergence Acceleration:
 DIIS                   CNVDIIS         .... on
   Start iteration      DIISMaxIt       ....    12
   Startup error        DIISStart       ....  0.200000
   # of expansion vecs  DIISMaxEq       ....     5
   Bias factor          DIISBfac        ....   1.050
   Max. coefficient     DIISMaxC        ....  10.000
 Newton-Raphson         CNVNR           .... off
 SOSCF                  CNVSOSCF        .... off
 Level Shifting         CNVShift        .... on
   Level shift para.    LevelShift      ....    0.2500
   Turn off err/grad.   ShiftErr        ....    0.0010
 Zerner damping         CNVZerner       .... off
 Static damping         CNVDamp         .... on
   Fraction old density DampFac         ....    0.7000
   Max. Damping (<1)    DampMax         ....    0.9800
   Min. Damping (>=0)   DampMin         ....    0.0000
   Turn off err/grad.   DampErr         ....    0.1000
 Fernandez-Rico         CNVRico         .... off

SCF Procedure:
 Maximum # iterations   MaxIter         ....   125
 SCF integral mode      SCFMode         .... Direct
   Integral package                     .... LIBINT
 Reset frequency        DirectResetFreq ....    20
 Integral Threshold     Thresh          ....  1.000e-10 Eh
 Primitive CutOff       TCut            ....  1.000e-11 Eh

Convergence Tolerance:
 Convergence Check Mode ConvCheckMode   .... Total+1el-Energy
 Convergence forced     ConvForced      .... 0
 Energy Change          TolE            ....  1.000e-06 Eh
 1-El. energy change                    ....  1.000e-03 Eh
 DIIS Error             TolErr          ....  1.000e-06


Diagonalization of the overlap matrix:
Smallest eigenvalue                        ... 9.569e-07
Time for diagonalization                   ...    0.056 sec
Threshold for overlap eigenvalues          ... 1.000e-08
Number of eigenvalues below threshold      ... 0
Time for construction of square roots      ...    0.061 sec
Total time needed                          ...    0.119 sec

-------------------
DFT GRID GENERATION
-------------------

General Integration Accuracy     IntAcc      ...  4.670
Radial Grid Type                 RadialGrid  ... Gauss-Chebyshev
Angular Grid (max. acc.)         AngularGrid ... Lebedev-302
Angular grid pruning method      GridPruning ... 3 (G Style)
Weight generation scheme         WeightScheme... Becke
Basis function cutoff            BFCut       ...    1.0000e-10
Integration weight cutoff        WCut        ...    1.0000e-14
Grids for H and He will be reduced by one unit

# of grid points (after initial pruning)     ... 112892 (   0.0 sec)
# of grid points (after weights+screening)   ...  99836 (   0.1 sec)
nearest neighbour list constructed           ...    0.0 sec
Grid point re-assignment to atoms done       ...    0.0 sec
Grid point division into batches done        ...    0.3 sec
Reduced shell lists constructed in    0.4 sec

Total number of grid points                  ...    99836
Total number of batches                      ...     1573
Average number of points per batch           ...       63
Average number of grid points per atom       ...     4160
Average number of shells per batch           ...   182.21 (79.57%)
Average number of basis functions per batch  ...   513.91 (82.76%)
Average number of large shells per batch     ...   151.07 (82.91%)
Average number of large basis fcns per batch ...   420.87 (81.89%)
Maximum spatial batch extension              ...   1.80,  1.97,  1.92 au
Average spatial batch extension              ...   0.05,  0.05,  0.05 au

Time for grid setup =    0.498 sec

------------------------------
INITIAL GUESS: MODEL POTENTIAL
------------------------------
Loading Hartree-Fock densities                     ... done
  calling /sw/apps/orca/orca_4_2_0_linux_x86-64_openmpi314/orca TMB31_T1_atom77.inp > TMB31_T1_atom77.out in order to generate an atomic fitting density for atom 0 (Ir with ECP) on-the-fly... 
    atom 0 (Ir), assumed electronic state with S=4: 1s2 2s2 2p6 3s2 3p6 4s2 3d10 4p6 5s2 4d10 5p6 6s2 4f14 5d7           ... done
Calculating cut-offs                               ... done
Setting up the integral package                    ... done
Initializing the effective Hamiltonian             ... done
Starting the Coulomb interaction                   ... done (   0.0 sec)
Reading the grid                                   ... done
Mapping shells                                     ... done
Starting the XC term evaluation                    ... done (   0.3 sec)
  promolecular density results
     # of electrons  =    148.995325330
     EX              =   -411.943533239
     EC              =     -7.155192426
     EX+EC           =   -419.098725665
Transforming the Hamiltonian                       ... done (   0.0 sec)
Diagonalizing the Hamiltonian                      ... done (   0.1 sec)
Back transforming the eigenvectors                 ... done (   0.0 sec)
Now organizing SCF variables                       ... done
                      ------------------
                      INITIAL GUESS DONE (   2.0 sec)
                      ------------------
--------------
SCF ITERATIONS
--------------
ITER       Energy         Delta-E        Max-DP      RMS-DP      [F,P]     Damp
               ***  Starting incremental Fock matrix formation  ***
  0   -716.2972625700   0.00000000000030.51272395  0.15139296  1.0477284 0.7000
  1   -718.8493606735  -2.552098103500 9.75397168  0.04580784  0.3217026 0.7000
                               ***Turning on DIIS***
  2   -719.5383202782  -0.688959604651 6.81506156  0.03304444  0.1652090 0.7000
  3   -720.1561460682  -0.617825790010 4.87090334  0.02343120  0.1151534 0.7000
  4   -720.5585203844  -0.40237431620611.46598738  0.05496195  0.0818998 0.0000
  5   -721.4592450547  -0.900724670344 0.11424001  0.00115052  0.0227513 0.0000
  6   -721.4685934530  -0.009348398238 0.03799658  0.00035526  0.0218153 0.0000
  7   -721.4703719456  -0.001778492664 0.02253667  0.00018750  0.0192545 0.0000
  8   -721.4714499344  -0.001077988754 0.00637038  0.00006179  0.0028077 0.0000
  9   -721.4715297762  -0.000079841812 0.00491209  0.00004210  0.0023898 0.0000
 10   -721.4715533968  -0.000023620621 0.00438732  0.00003141  0.0004991 0.0000
 11   -721.4715559144  -0.000002517609 0.00240067  0.00001125  0.0002672 0.0000
                 **** Energy Check signals convergence ****

               *****************************************************
               *                     SUCCESS                       *
               *           SCF CONVERGED AFTER  12 CYCLES          *
               *****************************************************


----------------
TOTAL SCF ENERGY
----------------

Total Energy       :         -721.47155641 Eh          -19632.23913 eV

Components:
Nuclear Repulsion  :          712.92820209 Eh           19399.76264 eV
Electronic Energy  :        -1434.39975851 Eh          -39032.00178 eV
One Electron Energy:        -2425.29471027 Eh          -65995.62422 eV
Two Electron Energy:          990.89495177 Eh           26963.62244 eV

Virial components:
Potential Energy   :        -1371.82950101 Eh          -37329.37851 eV
Kinetic Energy     :          650.35794459 Eh           17697.13938 eV
Virial Ratio       :            2.10934534


DFT components:
N(Alpha)           :       44.000117963898 electrons
N(Beta)            :       44.000117963898 electrons
N(Total)           :       88.000235927796 electrons
E(X)               :      -74.208281715307 Eh       
E(C)               :       -3.159410008083 Eh       
E(XC)              :      -77.367691723390 Eh       
DFET-embed. en.    :        0.000000000000 Eh       

---------------
SCF CONVERGENCE
---------------

  Last Energy change         ...   -5.0012e-07  Tolerance :   1.0000e-06
  Last MAX-Density change    ...    2.4238e-03  Tolerance :   1.0000e-05
  Last RMS-Density change    ...    1.7418e-05  Tolerance :   1.0000e-06
  Last DIIS Error            ...    8.9491e-05  Tolerance :   1.0000e-06

             **** THE GBW FILE WAS UPDATED (TMB31_T1.gbw) ****
             **** DENSITY FILE WAS UPDATED (TMB31_T1.scfp) ****
             **** ENERGY FILE WAS UPDATED (TMB31_T1.en.tmp) ****
             **** THE GBW FILE WAS UPDATED (TMB31_T1.gbw) ****
             **** DENSITY FILE WAS UPDATED (TMB31_T1.scfp) ****
----------------
ORBITAL ENERGIES
----------------

  NO   OCC          E(Eh)            E(eV) 
   0   2.0000     -76.787179     -2089.4854 
   1   2.0000     -10.177203      -276.9358 
   2   2.0000     -10.175602      -276.8922 
   3   2.0000     -10.174762      -276.8693 
   4   2.0000     -10.173926      -276.8466 
   5   2.0000     -10.172636      -276.8115 
   6   2.0000     -10.158388      -276.4238 
   7   2.0000     -10.126938      -275.5680 
   8   2.0000      -6.562467      -178.5738 
   9   2.0000      -4.739542      -128.9695 
  10   2.0000      -4.739478      -128.9678 
  11   2.0000      -4.737688      -128.9190 
  12   2.0000      -3.768661      -102.5505 
  13   2.0000      -2.149046       -58.4785 
  14   2.0000      -2.134566       -58.0845 
  15   2.0000      -2.127259       -57.8857 
  16   2.0000      -1.007154       -27.4061 
  17   2.0000      -0.840867       -22.8812 
  18   2.0000      -0.836255       -22.7557 
  19   2.0000      -0.808467       -21.9995 
  20   2.0000      -0.785499       -21.3745 
  21   2.0000      -0.764787       -20.8109 
  22   2.0000      -0.673672       -18.3315 
  23   2.0000      -0.672775       -18.3071 
  24   2.0000      -0.662150       -18.0180 
  25   2.0000      -0.585280       -15.9263 
  26   2.0000      -0.563150       -15.3241 
  27   2.0000      -0.554850       -15.0982 
  28   2.0000      -0.552548       -15.0356 
  29   2.0000      -0.543765       -14.7966 
  30   2.0000      -0.537271       -14.6199 
  31   2.0000      -0.517728       -14.0881 
  32   2.0000      -0.515752       -14.0343 
  33   2.0000      -0.514159       -13.9910 
  34   2.0000      -0.504196       -13.7199 
  35   2.0000      -0.501466       -13.6456 
  36   2.0000      -0.495426       -13.4812 
  37   2.0000      -0.488269       -13.2865 
  38   2.0000      -0.463629       -12.6160 
  39   2.0000      -0.430423       -11.7124 
  40   2.0000      -0.416139       -11.3237 
  41   2.0000      -0.391879       -10.6636 
  42   2.0000      -0.386807       -10.5256 
  43   2.0000      -0.370443       -10.0803 
  44   0.0000      -0.216283        -5.8854 
  45   0.0000      -0.196806        -5.3554 
  46   0.0000      -0.165389        -4.5005 
  47   0.0000      -0.156647        -4.2626 
  48   0.0000      -0.153083        -4.1656 
  49   0.0000      -0.143403        -3.9022 
  50   0.0000      -0.128027        -3.4838 
  51   0.0000      -0.125635        -3.4187 
  52   0.0000      -0.111982        -3.0472 
  53   0.0000      -0.110425        -3.0048 
  54   0.0000      -0.097950        -2.6654 
  55   0.0000      -0.089294        -2.4298 
  56   0.0000      -0.082931        -2.2567 
  57   0.0000      -0.080101        -2.1797 
  58   0.0000      -0.070523        -1.9190 
  59   0.0000      -0.065416        -1.7801 
  60   0.0000      -0.062611        -1.7037 
  61   0.0000      -0.057839        -1.5739 
  62   0.0000      -0.049812        -1.3554 
  63   0.0000      -0.042445        -1.1550 
  64   0.0000      -0.031894        -0.8679 
  65   0.0000      -0.027605        -0.7512 
  66   0.0000      -0.026799        -0.7292 
  67   0.0000      -0.022365        -0.6086 
  68   0.0000      -0.016663        -0.4534 
  69   0.0000      -0.008938        -0.2432 
  70   0.0000      -0.003387        -0.0922 
  71   0.0000      -0.001664        -0.0453 
  72   0.0000      -0.000187        -0.0051 
  73   0.0000       0.006194         0.1685 
  74   0.0000       0.010775         0.2932 
  75   0.0000       0.012151         0.3306 
  76   0.0000       0.016969         0.4617 
  77   0.0000       0.027956         0.7607 
  78   0.0000       0.029879         0.8131 
  79   0.0000       0.035937         0.9779 
  80   0.0000       0.039967         1.0876 
  81   0.0000       0.050479         1.3736 
  82   0.0000       0.055523         1.5109 
  83   0.0000       0.061004         1.6600 
  84   0.0000       0.062771         1.7081 
  85   0.0000       0.066350         1.8055 
  86   0.0000       0.070175         1.9096 
  87   0.0000       0.077522         2.1095 
  88   0.0000       0.078881         2.1464 
  89   0.0000       0.088081         2.3968 
  90   0.0000       0.103449         2.8150 
  91   0.0000       0.109107         2.9690 
  92   0.0000       0.112384         3.0581 
  93   0.0000       0.114051         3.1035 
  94   0.0000       0.122900         3.3443 
  95   0.0000       0.126134         3.4323 
  96   0.0000       0.129023         3.5109 
  97   0.0000       0.131081         3.5669 
  98   0.0000       0.138511         3.7691 
  99   0.0000       0.142887         3.8882 
 100   0.0000       0.145109         3.9486 
 101   0.0000       0.148234         4.0336 
 102   0.0000       0.150448         4.0939 
 103   0.0000       0.152082         4.1384 
 104   0.0000       0.154995         4.2176 
 105   0.0000       0.162063         4.4100 
 106   0.0000       0.163644         4.4530 
 107   0.0000       0.170004         4.6260 
 108   0.0000       0.174799         4.7565 
 109   0.0000       0.177079         4.8186 
 110   0.0000       0.179408         4.8819 
 111   0.0000       0.186544         5.0761 
 112   0.0000       0.190235         5.1766 
 113   0.0000       0.195138         5.3100 
 114   0.0000       0.196511         5.3473 
 115   0.0000       0.199006         5.4152 
 116   0.0000       0.203600         5.5402 
 117   0.0000       0.204757         5.5717 
 118   0.0000       0.206619         5.6224 
 119   0.0000       0.213348         5.8055 
 120   0.0000       0.213764         5.8168 
 121   0.0000       0.216541         5.8924 
 122   0.0000       0.222618         6.0578 
 123   0.0000       0.226451         6.1620 
 124   0.0000       0.231187         6.2909 
 125   0.0000       0.233439         6.3522 
 126   0.0000       0.235463         6.4073 
 127   0.0000       0.237010         6.4494 
 128   0.0000       0.243032         6.6132 
 129   0.0000       0.245424         6.6783 
 130   0.0000       0.253290         6.8924 
 131   0.0000       0.260947         7.1007 
 132   0.0000       0.262317         7.1380 
 133   0.0000       0.268568         7.3081 
 134   0.0000       0.277181         7.5425 
 135   0.0000       0.281183         7.6514 
 136   0.0000       0.286868         7.8061 
 137   0.0000       0.289643         7.8816 
 138   0.0000       0.297077         8.0839 
 139   0.0000       0.301987         8.2175 
 140   0.0000       0.304035         8.2732 
 141   0.0000       0.309975         8.4348 
 142   0.0000       0.314125         8.5478 
 143   0.0000       0.317468         8.6387 
 144   0.0000       0.319047         8.6817 
 145   0.0000       0.323617         8.8061 
 146   0.0000       0.331581         9.0228 
 147   0.0000       0.333428         9.0730 
 148   0.0000       0.337045         9.1714 
 149   0.0000       0.348132         9.4731 
 150   0.0000       0.351355         9.5609 
 151   0.0000       0.356323         9.6960 
 152   0.0000       0.358746         9.7620 
 153   0.0000       0.366317         9.9680 
 154   0.0000       0.374577        10.1928 
 155   0.0000       0.376442        10.2435 
 156   0.0000       0.379126        10.3166 
 157   0.0000       0.383788        10.4434 
 158   0.0000       0.389190        10.5904 
 159   0.0000       0.392537        10.6815 
 160   0.0000       0.397758        10.8235 
 161   0.0000       0.407386        11.0855 
 162   0.0000       0.412125        11.2145 
 163   0.0000       0.419077        11.4037 
 164   0.0000       0.421441        11.4680 
 165   0.0000       0.423813        11.5325 
 166   0.0000       0.433763        11.8033 
 167   0.0000       0.440241        11.9796 
 168   0.0000       0.445407        12.1201 
 169   0.0000       0.450296        12.2532 
 170   0.0000       0.453673        12.3451 
 171   0.0000       0.456365        12.4183 
 172   0.0000       0.461834        12.5671 
 173   0.0000       0.466689        12.6992 
 174   0.0000       0.469839        12.7850 
 175   0.0000       0.475899        12.9499 
 176   0.0000       0.479993        13.0613 
 177   0.0000       0.488469        13.2919 
 178   0.0000       0.494845        13.4654 
 179   0.0000       0.497004        13.5242 
 180   0.0000       0.503310        13.6958 
 181   0.0000       0.508365        13.8333 
 182   0.0000       0.511090        13.9075 
 183   0.0000       0.515501        14.0275 
 184   0.0000       0.520968        14.1763 
 185   0.0000       0.521713        14.1965 
 186   0.0000       0.525287        14.2938 
 187   0.0000       0.531894        14.4736 
 188   0.0000       0.541658        14.7393 
 189   0.0000       0.545051        14.8316 
 190   0.0000       0.551318        15.0021 
 191   0.0000       0.552908        15.0454 
 192   0.0000       0.557259        15.1638 
 193   0.0000       0.569267        15.4906 
 194   0.0000       0.572565        15.5803 
 195   0.0000       0.578334        15.7373 
 196   0.0000       0.579561        15.7706 
 197   0.0000       0.581937        15.8353 
 198   0.0000       0.589475        16.0404 
 199   0.0000       0.594707        16.1828 
 200   0.0000       0.596630        16.2351 
 201   0.0000       0.603448        16.4207 
 202   0.0000       0.605335        16.4720 
 203   0.0000       0.609135        16.5754 
 204   0.0000       0.612873        16.6771 
 205   0.0000       0.617371        16.7995 
 206   0.0000       0.618759        16.8373 
 207   0.0000       0.624013        16.9803 
 208   0.0000       0.627397        17.0723 
 209   0.0000       0.631910        17.1952 
 210   0.0000       0.639103        17.3909 
 211   0.0000       0.642731        17.4896 
 212   0.0000       0.651922        17.7397 
 213   0.0000       0.656611        17.8673 
 214   0.0000       0.668661        18.1952 
 215   0.0000       0.681716        18.5504 
 216   0.0000       0.683384        18.5958 
 217   0.0000       0.699920        19.0458 
 218   0.0000       0.710607        19.3366 
 219   0.0000       0.711172        19.3520 
 220   0.0000       0.726240        19.7620 
 221   0.0000       0.728896        19.8343 
 222   0.0000       0.736815        20.0498 
 223   0.0000       0.756237        20.5782 
 224   0.0000       0.773667        21.0525 
 225   0.0000       0.778608        21.1870 
 226   0.0000       0.782960        21.3054 
 227   0.0000       0.789860        21.4932 
 228   0.0000       0.797261        21.6946 
 229   0.0000       0.812449        22.1079 
 230   0.0000       0.814911        22.1749 
 231   0.0000       0.826377        22.4868 
 232   0.0000       0.838591        22.8192 
 233   0.0000       0.842480        22.9251 
 234   0.0000       0.857367        23.3302 
 235   0.0000       0.865630        23.5550 
 236   0.0000       0.882916        24.0254 
 237   0.0000       0.889982        24.2176 
 238   0.0000       0.895400        24.3651 
 239   0.0000       0.909046        24.7364 
 240   0.0000       0.920487        25.0477 
 241   0.0000       0.931038        25.3348 
 242   0.0000       0.936879        25.4938 
 243   0.0000       0.946934        25.7674 
 244   0.0000       0.966314        26.2948 
 245   0.0000       0.972955        26.4755 
 246   0.0000       0.975519        26.5452 
 247   0.0000       0.987158        26.8619 
 248   0.0000       0.993963        27.0471 
 249   0.0000       1.006167        27.3792 
 250   0.0000       1.007365        27.4118 
 251   0.0000       1.026932        27.9442 
 252   0.0000       1.030146        28.0317 
 253   0.0000       1.046133        28.4667 
 254   0.0000       1.055029        28.7088 
 255   0.0000       1.065988        29.0070 
 256   0.0000       1.082443        29.4548 
 257   0.0000       1.087197        29.5841 
 258   0.0000       1.092642        29.7323 
 259   0.0000       1.098919        29.9031 
 260   0.0000       1.107183        30.1280 
 261   0.0000       1.110122        30.2080 
 262   0.0000       1.122137        30.5349 
 263   0.0000       1.132451        30.8156 
 264   0.0000       1.136064        30.9139 
 265   0.0000       1.139503        31.0075 
 266   0.0000       1.158473        31.5237 
 267   0.0000       1.170501        31.8509 
 268   0.0000       1.174925        31.9713 
 269   0.0000       1.185727        32.2653 
 270   0.0000       1.199381        32.6368 
 271   0.0000       1.212696        32.9991 
 272   0.0000       1.219124        33.1741 
 273   0.0000       1.234922        33.6039 
 274   0.0000       1.236463        33.6459 
 275   0.0000       1.245522        33.8924 
 276   0.0000       1.248882        33.9838 
 277   0.0000       1.257542        34.2195 
 278   0.0000       1.267936        34.5023 
 279   0.0000       1.273136        34.6438 
 280   0.0000       1.289188        35.0806 
 281   0.0000       1.294093        35.2140 
 282   0.0000       1.300805        35.3967 
 283   0.0000       1.309818        35.6419 
 284   0.0000       1.316451        35.8225 
 285   0.0000       1.317618        35.8542 
 286   0.0000       1.325814        36.0772 
 287   0.0000       1.328628        36.1538 
 288   0.0000       1.338407        36.4199 
 289   0.0000       1.345537        36.6139 
 290   0.0000       1.351151        36.7667 
 291   0.0000       1.356709        36.9179 
 292   0.0000       1.365601        37.1599 
 293   0.0000       1.384022        37.6612 
 294   0.0000       1.392866        37.9018 
 295   0.0000       1.404226        38.2109 
 296   0.0000       1.431771        38.9605 
 297   0.0000       1.441614        39.2283 
 298   0.0000       1.447036        39.3759 
 299   0.0000       1.453571        39.5537 
 300   0.0000       1.460407        39.7397 
 301   0.0000       1.467361        39.9289 
 302   0.0000       1.485507        40.4227 
 303   0.0000       1.489762        40.5385 
 304   0.0000       1.507249        41.0143 
 305   0.0000       1.510603        41.1056 
 306   0.0000       1.519115        41.3372 
 307   0.0000       1.522116        41.4189 
 308   0.0000       1.538083        41.8534 
 309   0.0000       1.551591        42.2209 
 310   0.0000       1.555427        42.3253 
 311   0.0000       1.569327        42.7035 
 312   0.0000       1.581702        43.0403 
 313   0.0000       1.589387        43.2494 
 314   0.0000       1.596973        43.4558 
 315   0.0000       1.614837        43.9419 
 316   0.0000       1.621464        44.1223 
 317   0.0000       1.642382        44.6915 
 318   0.0000       1.658837        45.1393 
 319   0.0000       1.660439        45.1828 
 320   0.0000       1.669486        45.4290 
 321   0.0000       1.681205        45.7479 
 322   0.0000       1.704237        46.3746 
 323   0.0000       1.710767        46.5523 
 324   0.0000       1.717189        46.7271 
 325   0.0000       1.744000        47.4566 
 326   0.0000       1.751677        47.6655 
 327   0.0000       1.759454        47.8772 
 328   0.0000       1.761820        47.9416 
 329   0.0000       1.781002        48.4635 
 330   0.0000       1.792529        48.7772 
 331   0.0000       1.797751        48.9193 
 332   0.0000       1.814254        49.3684 
 333   0.0000       1.815325        49.3975 
 334   0.0000       1.827306        49.7235 
 335   0.0000       1.847467        50.2721 
 336   0.0000       1.860516        50.6272 
 337   0.0000       1.864622        50.7389 
 338   0.0000       1.904183        51.8155 
 339   0.0000       1.917235        52.1706 
 340   0.0000       1.918914        52.2163 
 341   0.0000       1.932817        52.5946 
 342   0.0000       1.937025        52.7091 
 343   0.0000       1.970219        53.6124 
 344   0.0000       1.996016        54.3144 
 345   0.0000       2.014085        54.8060 
 346   0.0000       2.034509        55.3618 
 347   0.0000       2.051173        55.8153 
 348   0.0000       2.055413        55.9306 
 349   0.0000       2.084462        56.7211 
 350   0.0000       2.105317        57.2886 
 351   0.0000       2.127449        57.8908 
 352   0.0000       2.176578        59.2277 
 353   0.0000       2.201485        59.9054 
 354   0.0000       2.275175        61.9107 
 355   0.0000       2.298904        62.5564 
 356   0.0000       2.323990        63.2390 
 357   0.0000       2.331611        63.4464 
 358   0.0000       2.345261        63.8178 
 359   0.0000       2.374654        64.6176 
 360   0.0000       2.383726        64.8645 
 361   0.0000       2.398396        65.2637 
 362   0.0000       2.437250        66.3209 
 363   0.0000       2.449561        66.6559 
 364   0.0000       2.454665        66.7948 
 365   0.0000       2.479746        67.4773 
 366   0.0000       2.526821        68.7583 
 367   0.0000       2.554104        69.5007 
 368   0.0000       2.599091        70.7249 
 369   0.0000       2.624535        71.4172 
 370   0.0000       2.632690        71.6392 
 371   0.0000       2.645735        71.9941 
 372   0.0000       2.652877        72.1885 
 373   0.0000       2.663265        72.4711 
 374   0.0000       2.664953        72.5171 
 375   0.0000       2.682704        73.0001 
 376   0.0000       2.697765        73.4099 
 377   0.0000       2.702884        73.5492 
 378   0.0000       2.716948        73.9319 
 379   0.0000       2.737431        74.4893 
 380   0.0000       2.745758        74.7159 
 381   0.0000       2.749582        74.8199 
 382   0.0000       2.770816        75.3977 
 383   0.0000       2.782268        75.7094 
 384   0.0000       2.790414        75.9310 
 385   0.0000       2.797466        76.1229 
 386   0.0000       2.813713        76.5650 
 387   0.0000       2.825766        76.8930 
 388   0.0000       2.834144        77.1210 
 389   0.0000       2.846201        77.4491 
 390   0.0000       2.861390        77.8624 
 391   0.0000       2.864993        77.9604 
 392   0.0000       2.883676        78.4688 
 393   0.0000       2.893846        78.7456 
 394   0.0000       2.900069        78.9149 
 395   0.0000       2.911346        79.2218 
 396   0.0000       2.915705        79.3404 
 397   0.0000       2.937105        79.9227 
 398   0.0000       2.943070        80.0850 
 399   0.0000       2.952541        80.3427 
 400   0.0000       2.961415        80.5842 
 401   0.0000       2.962607        80.6166 
 402   0.0000       2.978107        81.0384 
 403   0.0000       2.992743        81.4367 
 404   0.0000       3.003658        81.7337 
 405   0.0000       3.010429        81.9179 
 406   0.0000       3.037546        82.6558 
 407   0.0000       3.046767        82.9068 
 408   0.0000       3.057153        83.1894 
 409   0.0000       3.066808        83.4521 
 410   0.0000       3.074169        83.6524 
 411   0.0000       3.080909        83.8358 
 412   0.0000       3.102828        84.4322 
 413   0.0000       3.109075        84.6022 
 414   0.0000       3.120243        84.9061 
 415   0.0000       3.127053        85.0914 
 416   0.0000       3.139205        85.4221 
 417   0.0000       3.151773        85.7641 
 418   0.0000       3.156488        85.8924 
 419   0.0000       3.164424        86.1084 
 420   0.0000       3.172458        86.3270 
 421   0.0000       3.182097        86.5893 
 422   0.0000       3.189960        86.8032 
 423   0.0000       3.207200        87.2723 
 424   0.0000       3.219828        87.6160 
 425   0.0000       3.233350        87.9839 
 426   0.0000       3.238994        88.1375 
 427   0.0000       3.243300        88.2547 
 428   0.0000       3.260556        88.7242 
 429   0.0000       3.270742        89.0014 
 430   0.0000       3.276755        89.1650 
 431   0.0000       3.285350        89.3989 
 432   0.0000       3.293072        89.6090 
 433   0.0000       3.300360        89.8074 
 434   0.0000       3.308509        90.0291 
 435   0.0000       3.320568        90.3572 
 436   0.0000       3.324395        90.4614 
 437   0.0000       3.340037        90.8870 
 438   0.0000       3.350250        91.1649 
 439   0.0000       3.361755        91.4780 
 440   0.0000       3.370091        91.7048 
 441   0.0000       3.390982        92.2733 
 442   0.0000       3.393430        92.3399 
 443   0.0000       3.403195        92.6056 
 444   0.0000       3.413553        92.8875 
 445   0.0000       3.420652        93.0807 
 446   0.0000       3.425639        93.2164 
 447   0.0000       3.441988        93.6612 
 448   0.0000       3.447775        93.8187 
 449   0.0000       3.456696        94.0615 
 450   0.0000       3.473528        94.5195 
 451   0.0000       3.478531        94.6556 
 452   0.0000       3.504054        95.3502 
 453   0.0000       3.507803        95.4522 
 454   0.0000       3.516982        95.7019 
 455   0.0000       3.528942        96.0274 
 456   0.0000       3.543836        96.4327 
 457   0.0000       3.548844        96.5689 
 458   0.0000       3.555035        96.7374 
 459   0.0000       3.566492        97.0492 
 460   0.0000       3.574359        97.2633 
 461   0.0000       3.588289        97.6423 
 462   0.0000       3.602306        98.0237 
 463   0.0000       3.624743        98.6343 
 464   0.0000       3.635206        98.9190 
 465   0.0000       3.648643        99.2846 
 466   0.0000       3.666136        99.7606 
 467   0.0000       3.669734        99.8585 
 468   0.0000       3.683300       100.2277 
 469   0.0000       3.713814       101.0580 
 470   0.0000       3.723036       101.3090 
 471   0.0000       3.749624       102.0325 
 472   0.0000       3.755138       102.1825 
 473   0.0000       3.765214       102.4567 
 474   0.0000       3.772990       102.6683 
 475   0.0000       3.782934       102.9389 
 476   0.0000       3.793600       103.2291 
 477   0.0000       3.803824       103.5073 
 478   0.0000       3.807684       103.6123 
 479   0.0000       3.816903       103.8632 
 480   0.0000       3.822396       104.0127 
 481   0.0000       3.829424       104.2039 
 482   0.0000       3.842654       104.5639 
 483   0.0000       3.854425       104.8842 
 484   0.0000       3.871871       105.3590 
 485   0.0000       3.887870       105.7943 
 486   0.0000       3.897418       106.0541 
 487   0.0000       3.912593       106.4671 
 488   0.0000       3.915082       106.5348 
 489   0.0000       3.925426       106.8163 
 490   0.0000       3.933420       107.0338 
 491   0.0000       3.949708       107.4770 
 492   0.0000       3.961648       107.8019 
 493   0.0000       3.982566       108.3711 
 494   0.0000       3.990572       108.5890 
 495   0.0000       4.003410       108.9383 
 496   0.0000       4.006035       109.0098 
 497   0.0000       4.019018       109.3631 
 498   0.0000       4.028021       109.6080 
 499   0.0000       4.034436       109.7826 
 500   0.0000       4.039676       109.9252 
 501   0.0000       4.049358       110.1886 
 502   0.0000       4.056342       110.3787 
 503   0.0000       4.068802       110.7177 
 504   0.0000       4.083634       111.1213 
 505   0.0000       4.088396       111.2509 
 506   0.0000       4.102867       111.6447 
 507   0.0000       4.104633       111.6927 
 508   0.0000       4.118461       112.0690 
 509   0.0000       4.126698       112.2932 
 510   0.0000       4.133404       112.4756 
 511   0.0000       4.143681       112.7553 
 512   0.0000       4.152348       112.9911 
 513   0.0000       4.157127       113.1212 
 514   0.0000       4.164413       113.3194 
 515   0.0000       4.169435       113.4561 
 516   0.0000       4.177710       113.6813 
 517   0.0000       4.184817       113.8747 
 518   0.0000       4.189110       113.9915 
 519   0.0000       4.195206       114.1574 
 520   0.0000       4.200403       114.2988 
 521   0.0000       4.209753       114.5532 
 522   0.0000       4.243949       115.4837 
 523   0.0000       4.247769       115.5877 
 524   0.0000       4.261908       115.9724 
 525   0.0000       4.271786       116.2412 
 526   0.0000       4.278346       116.4197 
 527   0.0000       4.296380       116.9104 
 528   0.0000       4.306891       117.1965 
 529   0.0000       4.322946       117.6333 
 530   0.0000       4.327867       117.7672 
 531   0.0000       4.352331       118.4330 
 532   0.0000       4.365539       118.7924 
 533   0.0000       4.387166       119.3808 
 534   0.0000       4.401473       119.7702 
 535   0.0000       4.415022       120.1389 
 536   0.0000       4.419796       120.2688 
 537   0.0000       4.441912       120.8706 
 538   0.0000       4.453315       121.1809 
 539   0.0000       4.461348       121.3994 
 540   0.0000       4.475146       121.7749 
 541   0.0000       4.513203       122.8105 
 542   0.0000       4.543824       123.6437 
 543   0.0000       4.560976       124.1105 
 544   0.0000       4.571221       124.3892 
 545   0.0000       4.592827       124.9772 
 546   0.0000       4.638386       126.2169 
 547   0.0000       4.648396       126.4893 
 548   0.0000       4.678027       127.2956 
 549   0.0000       4.697936       127.8373 
 550   0.0000       4.737281       128.9080 
 551   0.0000       4.745090       129.1205 
 552   0.0000       4.755012       129.3904 
 553   0.0000       4.756028       129.4181 
 554   0.0000       4.765194       129.6675 
 555   0.0000       4.772261       129.8598 
 556   0.0000       4.782682       130.1434 
 557   0.0000       4.863975       132.3555 
 558   0.0000       4.872959       132.6000 
 559   0.0000       4.884525       132.9147 
 560   0.0000       4.901326       133.3718 
 561   0.0000       4.915660       133.7619 
 562   0.0000       4.946222       134.5936 
 563   0.0000       5.012902       136.4080 
 564   0.0000       5.070387       137.9722 
 565   0.0000       5.072370       138.0262 
 566   0.0000       5.114833       139.1817 
 567   0.0000       5.120781       139.3435 
 568   0.0000       5.134455       139.7156 
 569   0.0000       5.141384       139.9042 
 570   0.0000       5.196288       141.3982 
 571   0.0000       5.203392       141.5915 
 572   0.0000       5.222969       142.1242 
 573   0.0000       5.240917       142.6126 
 574   0.0000       5.257022       143.0508 
 575   0.0000       5.268393       143.3603 
 576   0.0000       5.278305       143.6300 
 577   0.0000       5.293676       144.0482 
 578   0.0000       5.313576       144.5898 
 579   0.0000       5.317250       144.6897 
 580   0.0000       5.329236       145.0159 
 581   0.0000       5.346686       145.4907 
 582   0.0000       5.359098       145.8285 
 583   0.0000       5.393875       146.7748 
 584   0.0000       5.423983       147.5941 
 585   0.0000       5.427622       147.6931 
 586   0.0000       5.463204       148.6613 
 587   0.0000       5.493479       149.4852 
 588   0.0000       5.559744       151.2883 
 589   0.0000       5.610289       152.6637 
 590   0.0000       5.653908       153.8507 
 591   0.0000       5.659690       154.0080 
 592   0.0000       5.715178       155.5179 
 593   0.0000       5.723613       155.7474 
 594   0.0000       5.749019       156.4388 
 595   0.0000       5.759751       156.7308 
 596   0.0000       5.793593       157.6517 
 597   0.0000       5.870919       159.7558 
 598   0.0000       5.886554       160.1813 
 599   0.0000       5.903240       160.6353 
 600   0.0000       5.918186       161.0420 
 601   0.0000       5.926890       161.2789 
 602   0.0000       6.495514       176.7519 
 603   0.0000       6.505360       177.0198 
 604   0.0000       6.548885       178.2042 
 605   0.0000       7.825317       212.9377 
 606   0.0000       7.853717       213.7105 
 607   0.0000       7.901253       215.0040 
 608   0.0000      16.278281       442.9545 
 609   0.0000      23.037300       626.8768 
 610   0.0000      23.216009       631.7397 
 611   0.0000      23.246967       632.5821 
 612   0.0000      23.603654       642.2881 
 613   0.0000      23.607689       642.3979 
 614   0.0000      23.647775       643.4887 
 615   0.0000      23.690514       644.6517 
 616   0.0000      39.988020      1088.1293 
 617   0.0000      40.786008      1109.8437 
 618   0.0000      42.972747      1169.3479 
 619   0.0000      59.563988      1620.8185 
 620   0.0000     363.558817      9892.9384 

                    ********************************
                    * MULLIKEN POPULATION ANALYSIS *
                    ********************************

-----------------------
MULLIKEN ATOMIC CHARGES
-----------------------
   0 Ir:    0.231180
   1 C :   -0.655947
   2 C :    0.020564
   3 C :    0.160138
   4 C :    0.365751
   5 C :   -0.082160
   6 C :    0.274697
   7 H :    0.169668
   8 H :    0.236456
   9 H :    0.185105
  10 H :   -0.031675
  11 H :   -0.086322
  12 H :   -0.024387
  13 H :   -0.046626
  14 H :   -0.035709
  15 C :   -0.495886
  16 H :    0.058903
  17 H :    0.115171
  18 H :    0.201152
  19 H :    0.207650
  20 P :   -0.015668
  21 H :    0.076666
  22 H :    0.087241
  23 H :    0.084039
Sum of atomic charges:    1.0000000

--------------------------------
MULLIKEN REDUCED ORBITAL CHARGES
--------------------------------
  0 Irs       :     2.478103  s :     2.478103
      pz      :     2.246047  p :     6.753844
      px      :     2.244645
      py      :     2.263152
      dz2     :     1.636719  d :     7.458267
      dxz     :     1.338946
      dyz     :     1.538501
      dx2y2   :     1.601137
      dxy     :     1.342964
      f0      :     0.006722  f :     0.076402
      f+1     :     0.012145
      f-1     :     0.006805
      f+2     :     0.012193
      f-2     :     0.012680
      f+3     :     0.012259
      f-3     :     0.013597
      g0      :     0.000186  g :     0.002204
      g+1     :     0.000184
      g-1     :     0.000161
      g+2     :     0.000239
      g-2     :     0.000286
      g+3     :     0.000256
      g-3     :     0.000278
      g+4     :     0.000279
      g-4     :     0.000334
  1 C s       :     3.262917  s :     3.262917
      pz      :     1.083100  p :     3.316873
      px      :     1.166736
      py      :     1.067037
      dz2     :     0.005631  d :     0.072872
      dxz     :     0.016714
      dyz     :     0.008603
      dx2y2   :     0.049692
      dxy     :    -0.007768
      f0      :     0.000426  f :     0.003285
      f+1     :     0.000631
      f-1     :     0.000364
      f+2     :     0.000633
      f-2     :     0.000425
      f+3     :     0.000332
      f-3     :     0.000474
  2 C s       :     3.338326  s :     3.338326
      pz      :     0.806366  p :     2.530243
      px      :     0.941773
      py      :     0.782104
      dz2     :     0.064738  d :     0.102383
      dxz     :     0.025148
      dyz     :    -0.017990
      dx2y2   :     0.022008
      dxy     :     0.008479
      f0      :     0.001463  f :     0.008483
      f+1     :     0.000768
      f-1     :     0.001401
      f+2     :     0.001460
      f-2     :     0.001316
      f+3     :     0.000816
      f-3     :     0.001259
  3 C s       :     3.311166  s :     3.311166
      pz      :     0.769004  p :     2.470773
      px      :     0.932366
      py      :     0.769404
      dz2     :     0.025841  d :     0.049437
      dxz     :    -0.016199
      dyz     :     0.010827
      dx2y2   :     0.016726
      dxy     :     0.012241
      f0      :     0.001297  f :     0.008485
      f+1     :     0.001040
      f-1     :     0.001809
      f+2     :     0.001348
      f-2     :     0.001384
      f+3     :     0.000926
      f-3     :     0.000682
  4 C s       :     3.128651  s :     3.128651
      pz      :     0.759954  p :     2.460807
      px      :     0.944478
      py      :     0.756375
      dz2     :     0.008847  d :     0.036278
      dxz     :     0.004205
      dyz     :     0.049843
      dx2y2   :    -0.021370
      dxy     :    -0.005247
      f0      :     0.001105  f :     0.008514
      f+1     :     0.001032
      f-1     :     0.002011
      f+2     :     0.001092
      f-2     :     0.001011
      f+3     :     0.001358
      f-3     :     0.000905
  5 C s       :     3.395004  s :     3.395004
      pz      :     0.780416  p :     2.568641
      px      :     0.953529
      py      :     0.834696
      dz2     :    -0.019887  d :     0.109750
      dxz     :     0.016474
      dyz     :     0.077324
      dx2y2   :     0.020536
      dxy     :     0.015304
      f0      :     0.001678  f :     0.008765
      f+1     :     0.000889
      f-1     :     0.001686
      f+2     :     0.001413
      f-2     :     0.000765
      f+3     :     0.001383
      f-3     :     0.000950
  6 C s       :     3.157406  s :     3.157406
      pz      :     0.758498  p :     2.510027
      px      :     0.926711
      py      :     0.824818
      dz2     :    -0.012135  d :     0.049373
      dxz     :    -0.006790
      dyz     :     0.005419
      dx2y2   :     0.038176
      dxy     :     0.024704
      f0      :     0.001747  f :     0.008498
      f+1     :     0.001095
      f-1     :     0.001325
      f+2     :     0.001496
      f-2     :     0.000947
      f+3     :     0.000841
      f-3     :     0.001047
  7 H s       :     0.771534  s :     0.771534
      pz      :     0.021259  p :     0.057416
      px      :     0.019483
      py      :     0.016673
      dz2     :     0.000344  d :     0.001383
      dxz     :     0.000223
      dyz     :     0.000472
      dx2y2   :     0.000198
      dxy     :     0.000146
  8 H s       :     0.697458  s :     0.697458
      pz      :     0.012571  p :     0.064764
      px      :     0.032993
      py      :     0.019200
      dz2     :     0.000109  d :     0.001322
      dxz     :     0.000416
      dyz     :     0.000100
      dx2y2   :     0.000233
      dxy     :     0.000464
  9 H s       :     0.748799  s :     0.748799
      pz      :     0.020021  p :     0.064755
      px      :     0.016018
      py      :     0.028716
      dz2     :     0.000230  d :     0.001341
      dxz     :     0.000135
      dyz     :     0.000418
      dx2y2   :     0.000081
      dxy     :     0.000476
 10 H s       :     0.976004  s :     0.976004
      pz      :     0.012471  p :     0.054283
      px      :     0.025859
      py      :     0.015954
      dz2     :     0.000524  d :     0.001388
      dxz     :     0.000211
      dyz     :     0.000100
      dx2y2   :     0.000253
      dxy     :     0.000300
 11 H s       :     1.038084  s :     1.038084
      pz      :     0.014172  p :     0.046863
      px      :     0.026436
      py      :     0.006255
      dz2     :     0.000417  d :     0.001375
      dxz     :     0.000295
      dyz     :     0.000353
      dx2y2   :     0.000172
      dxy     :     0.000138
 12 H s       :     0.972334  s :     0.972334
      pz      :     0.002458  p :     0.050691
      px      :     0.023968
      py      :     0.024265
      dz2     :     0.000054  d :     0.001363
      dxz     :     0.000029
      dyz     :     0.000675
      dx2y2   :     0.000145
      dxy     :     0.000460
 13 H s       :     0.986481  s :     0.986481
      pz      :     0.028158  p :     0.058774
      px      :     0.028894
      py      :     0.001722
      dz2     :     0.000283  d :     0.001372
      dxz     :     0.000405
      dyz     :     0.000562
      dx2y2   :     0.000066
      dxy     :     0.000055
 14 H s       :     0.985710  s :     0.985710
      pz      :     0.003798  p :     0.048610
      px      :     0.023769
      py      :     0.021043
      dz2     :     0.000364  d :     0.001389
      dxz     :     0.000161
      dyz     :     0.000273
      dx2y2   :     0.000272
      dxy     :     0.000319
 15 C s       :     3.183313  s :     3.183313
      pz      :     1.136720  p :     3.252915
      px      :     1.137383
      py      :     0.978812
      dz2     :     0.019408  d :     0.056198
      dxz     :     0.013202
      dyz     :     0.022596
      dx2y2   :     0.007303
      dxy     :    -0.006311
      f0      :     0.000640  f :     0.003461
      f+1     :     0.000123
      f-1     :     0.000564
      f+2     :     0.000529
      f-2     :     0.000570
      f+3     :     0.000623
      f-3     :     0.000411
 16 H s       :     0.876771  s :     0.876771
      pz      :    -0.023999  p :     0.060386
      px      :     0.006706
      py      :     0.077679
      dz2     :     0.000842  d :     0.003939
      dxz     :     0.000899
      dyz     :     0.001135
      dx2y2   :     0.000491
      dxy     :     0.000571
 17 H s       :     0.821620  s :     0.821620
      pz      :     0.015179  p :     0.061853
      px      :     0.018670
      py      :     0.028005
      dz2     :     0.000462  d :     0.001356
      dxz     :     0.000190
      dyz     :     0.000113
      dx2y2   :     0.000418
      dxy     :     0.000173
 18 H s       :     0.746181  s :     0.746181
      pz      :     0.031087  p :     0.051446
      px      :     0.007547
      py      :     0.012813
      dz2     :     0.000370  d :     0.001220
      dxz     :     0.000489
      dyz     :     0.000210
      dx2y2   :     0.000079
      dxy     :     0.000073
 19 H s       :     0.725222  s :     0.725222
      pz      :     0.007119  p :     0.065811
      px      :     0.030010
      py      :     0.028682
      dz2     :     0.000232  d :     0.001317
      dxz     :     0.000353
      dyz     :     0.000081
      dx2y2   :     0.000144
      dxy     :     0.000508
 20 P s       :     5.602273  s :     5.602273
      pz      :     2.992159  p :     9.056650
      px      :     3.122488
      py      :     2.942003
      dz2     :     0.075292  d :     0.334209
      dxz     :     0.064738
      dyz     :     0.057997
      dx2y2   :     0.075032
      dxy     :     0.061150
      f0      :     0.002699  f :     0.022535
      f+1     :     0.003792
      f-1     :     0.002929
      f+2     :     0.002745
      f-2     :     0.003150
      f+3     :     0.002798
      f-3     :     0.004423
 21 H s       :     0.900367  s :     0.900367
      pz      :     0.009905  p :     0.021888
      px      :     0.006109
      py      :     0.005874
      dz2     :     0.000359  d :     0.001079
      dxz     :     0.000266
      dyz     :     0.000295
      dx2y2   :     0.000112
      dxy     :     0.000047
 22 H s       :     0.891011  s :     0.891011
      pz      :     0.002501  p :     0.020678
      px      :     0.004707
      py      :     0.013470
      dz2     :     0.000095  d :     0.001070
      dxz     :     0.000034
      dyz     :     0.000328
      dx2y2   :     0.000330
      dxy     :     0.000284
 23 H s       :     0.896466  s :     0.896466
      pz      :     0.002818  p :     0.018389
      px      :     0.011432
      py      :     0.004138
      dz2     :     0.000209  d :     0.001106
      dxz     :     0.000311
      dyz     :     0.000114
      dx2y2   :     0.000267
      dxy     :     0.000206


                     *******************************
                     * LOEWDIN POPULATION ANALYSIS *
                     *******************************

----------------------
LOEWDIN ATOMIC CHARGES
----------------------
   0 Ir:    1.046884
   1 C :    0.010646
   2 C :   -0.048928
   3 C :   -0.061062
   4 C :   -0.077301
   5 C :   -0.058602
   6 C :   -0.045430
   7 H :   -0.074877
   8 H :   -0.089936
   9 H :   -0.081034
  10 H :    0.025531
  11 H :    0.021169
  12 H :    0.023386
  13 H :    0.016431
  14 H :    0.016516
  15 C :    0.091005
  16 H :   -0.104824
  17 H :   -0.050623
  18 H :   -0.069464
  19 H :   -0.062407
  20 P :    0.925189
  21 H :   -0.123951
  22 H :   -0.116446
  23 H :   -0.111873

-------------------------------
LOEWDIN REDUCED ORBITAL CHARGES
-------------------------------
  0 Irs       :     2.005138  s :     2.005138
      pz      :     2.121834  p :     6.394010
      px      :     2.146636
      py      :     2.125539
      dz2     :     1.568999  d :     7.379947
      dxz     :     1.375571
      dyz     :     1.508783
      dx2y2   :     1.581474
      dxy     :     1.345121
      f0      :     0.015093  f :     0.168986
      f+1     :     0.025856
      f-1     :     0.015421
      f+2     :     0.028780
      f-2     :     0.027465
      f+3     :     0.027276
      f-3     :     0.029095
      g0      :     0.000457  g :     0.005034
      g+1     :     0.000409
      g-1     :     0.000339
      g+2     :     0.000617
      g-2     :     0.000599
      g+3     :     0.000632
      g-3     :     0.000633
      g+4     :     0.000618
      g-4     :     0.000730
  1 C s       :     2.702894  s :     2.702894
      pz      :     0.923509  p :     2.770829
      px      :     0.944987
      py      :     0.902333
      dz2     :     0.119030  d :     0.492584
      dxz     :     0.103239
      dyz     :     0.082323
      dx2y2   :     0.137454
      dxy     :     0.050538
      f0      :     0.003431  f :     0.023046
      f+1     :     0.005126
      f-1     :     0.002083
      f+2     :     0.003745
      f-2     :     0.001975
      f+3     :     0.002621
      f-3     :     0.004066
  2 C s       :     2.646965  s :     2.646965
      pz      :     0.896642  p :     2.570485
      px      :     0.737444
      py      :     0.936399
      dz2     :     0.215116  d :     0.780664
      dxz     :     0.154958
      dyz     :     0.176408
      dx2y2   :     0.142593
      dxy     :     0.091589
      f0      :     0.008977  f :     0.050815
      f+1     :     0.004479
      f-1     :     0.010000
      f+2     :     0.009666
      f-2     :     0.009198
      f+3     :     0.003195
      f-3     :     0.005299
  3 C s       :     2.648805  s :     2.648805
      pz      :     0.914565  p :     2.583983
      px      :     0.762738
      py      :     0.906680
      dz2     :     0.191370  d :     0.777656
      dxz     :     0.105298
      dyz     :     0.187687
      dx2y2   :     0.147973
      dxy     :     0.145328
      f0      :     0.006573  f :     0.050618
      f+1     :     0.004831
      f-1     :     0.012179
      f+2     :     0.009090
      f-2     :     0.009240
      f+3     :     0.004720
      f-3     :     0.003984
  4 C s       :     2.646815  s :     2.646815
      pz      :     0.895587  p :     2.592175
      px      :     0.777533
      py      :     0.919054
      dz2     :     0.169253  d :     0.787803
      dxz     :     0.137156
      dyz     :     0.233034
      dx2y2   :     0.126417
      dxy     :     0.121944
      f0      :     0.007578  f :     0.050507
      f+1     :     0.006770
      f-1     :     0.013066
      f+2     :     0.005616
      f-2     :     0.005714
      f+3     :     0.006584
      f-3     :     0.005179
  5 C s       :     2.645376  s :     2.645376
      pz      :     0.911989  p :     2.562239
      px      :     0.729577
      py      :     0.920673
      dz2     :     0.160217  d :     0.798591
      dxz     :     0.123576
      dyz     :     0.243814
      dx2y2   :     0.139572
      dxy     :     0.131412
      f0      :     0.010752  f :     0.052396
      f+1     :     0.006438
      f-1     :     0.010891
      f+2     :     0.006615
      f-2     :     0.003963
      f+3     :     0.007252
      f-3     :     0.006486
  6 C s       :     2.645498  s :     2.645498
      pz      :     0.919115  p :     2.583887
      px      :     0.751870
      py      :     0.912902
      dz2     :     0.165095  d :     0.765682
      dxz     :     0.108545
      dyz     :     0.208614
      dx2y2   :     0.148156
      dxy     :     0.135271
      f0      :     0.010796  f :     0.050363
      f+1     :     0.005412
      f-1     :     0.008857
      f+2     :     0.008416
      f-2     :     0.005485
      f+3     :     0.004878
      f-3     :     0.006519
  7 H s       :     0.722123  s :     0.722123
      pz      :     0.129732  p :     0.322426
      px      :     0.104149
      py      :     0.088544
      dz2     :     0.009730  d :     0.030328
      dxz     :     0.008157
      dyz     :     0.007045
      dx2y2   :     0.002817
      dxy     :     0.002579
  8 H s       :     0.721984  s :     0.721984
      pz      :     0.102718  p :     0.337908
      px      :     0.143251
      py      :     0.091939
      dz2     :     0.003162  d :     0.030044
      dxz     :     0.009232
      dyz     :     0.001291
      dx2y2   :     0.008375
      dxy     :     0.007984
  9 H s       :     0.723200  s :     0.723200
      pz      :     0.101085  p :     0.327662
      px      :     0.087733
      py      :     0.138844
      dz2     :     0.004600  d :     0.030172
      dxz     :     0.001711
      dyz     :     0.008362
      dx2y2   :     0.007364
      dxy     :     0.008135
 10 H s       :     0.691877  s :     0.691877
      pz      :     0.089056  p :     0.253550
      px      :     0.067675
      py      :     0.096818
      dz2     :     0.006491  d :     0.029042
      dxz     :     0.003422
      dyz     :     0.009280
      dx2y2   :     0.005149
      dxy     :     0.004699
 11 H s       :     0.698001  s :     0.698001
      pz      :     0.109065  p :     0.251668
      px      :     0.075416
      py      :     0.067187
      dz2     :     0.009504  d :     0.029161
      dxz     :     0.007293
      dyz     :     0.007787
      dx2y2   :     0.002365
      dxy     :     0.002213
 12 H s       :     0.696004  s :     0.696004
      pz      :     0.060331  p :     0.251652
      px      :     0.067204
      py      :     0.124117
      dz2     :     0.003231  d :     0.028957
      dxz     :     0.000233
      dyz     :     0.008453
      dx2y2   :     0.009043
      dxy     :     0.007997
 13 H s       :     0.699725  s :     0.699725
      pz      :     0.118771  p :     0.254856
      px      :     0.073917
      py      :     0.062168
      dz2     :     0.010886  d :     0.028988
      dxz     :     0.008130
      dyz     :     0.008254
      dx2y2   :     0.000859
      dxy     :     0.000860
 14 H s       :     0.699634  s :     0.699634
      pz      :     0.073159  p :     0.254586
      px      :     0.073642
      py      :     0.107785
      dz2     :     0.004694  d :     0.029264
      dxz     :     0.002505
      dyz     :     0.008579
      dx2y2   :     0.006759
      dxy     :     0.006727
 15 C s       :     2.682344  s :     2.682344
      pz      :     0.963178  p :     2.720400
      px      :     0.946018
      py      :     0.811203
      dz2     :     0.059256  d :     0.482940
      dxz     :     0.067428
      dyz     :     0.156796
      dx2y2   :     0.113283
      dxy     :     0.086178
      f0      :     0.004241  f :     0.023311
      f+1     :     0.000857
      f-1     :     0.003657
      f+2     :     0.004531
      f-2     :     0.004918
      f+3     :     0.003255
      f-3     :     0.001852
 16 H s       :     0.617512  s :     0.617512
      pz      :     0.122098  p :     0.448264
      px      :     0.114319
      py      :     0.211847
      dz2     :     0.008249  d :     0.039049
      dxz     :     0.008280
      dyz     :     0.013752
      dx2y2   :     0.004429
      dxy     :     0.004339
 17 H s       :     0.711935  s :     0.711935
      pz      :     0.103654  p :     0.308913
      px      :     0.101363
      py      :     0.103896
      dz2     :     0.006672  d :     0.029775
      dxz     :     0.005197
      dyz     :     0.005939
      dx2y2   :     0.006019
      dxy     :     0.005948
 18 H s       :     0.710883  s :     0.710883
      pz      :     0.134599  p :     0.328169
      px      :     0.086437
      py      :     0.107133
      dz2     :     0.009891  d :     0.030412
      dxz     :     0.008626
      dyz     :     0.008919
      dx2y2   :     0.001540
      dxy     :     0.001437
 19 H s       :     0.711304  s :     0.711304
      pz      :     0.095398  p :     0.321419
      px      :     0.138902
      py      :     0.087119
      dz2     :     0.004582  d :     0.029684
      dxz     :     0.009163
      dyz     :     0.001090
      dx2y2   :     0.007399
      dxy     :     0.007450
 20 P s       :     4.727541  s :     4.727541
      pz      :     2.830597  p :     8.549011
      px      :     2.898239
      py      :     2.820175
      dz2     :     0.166856  d :     0.735689
      dxz     :     0.138252
      dyz     :     0.133265
      dx2y2   :     0.172811
      dxy     :     0.124504
      f0      :     0.007749  f :     0.062570
      f+1     :     0.009613
      f-1     :     0.008663
      f+2     :     0.007946
      f-2     :     0.008602
      f+3     :     0.007804
      f-3     :     0.012194
 21 H s       :     0.844227  s :     0.844227
      pz      :     0.129452  p :     0.267842
      px      :     0.064245
      py      :     0.074144
      dz2     :     0.004277  d :     0.011882
      dxz     :     0.002717
      dyz     :     0.003568
      dx2y2   :     0.000741
      dxy     :     0.000578
 22 H s       :     0.834916  s :     0.834916
      pz      :     0.060637  p :     0.269537
      px      :     0.065609
      py      :     0.143291
      dz2     :     0.001411  d :     0.011993
      dxz     :     0.000317
      dyz     :     0.003098
      dx2y2   :     0.003853
      dxy     :     0.003313
 23 H s       :     0.823861  s :     0.823861
      pz      :     0.084574  p :     0.275863
      px      :     0.125054
      py      :     0.066235
      dz2     :     0.001868  d :     0.012149
      dxz     :     0.003674
      dyz     :     0.000972
      dx2y2   :     0.003379
      dxy     :     0.002256


                      *****************************
                      * MAYER POPULATION ANALYSIS *
                      *****************************

  NA   - Mulliken gross atomic population
  ZA   - Total nuclear charge
  QA   - Mulliken gross atomic charge
  VA   - Mayer's total valence
  BVA  - Mayer's bonded valence
  FA   - Mayer's free valence

  ATOM       NA         ZA         QA         VA         BVA        FA
  0 Ir    16.7688    17.0000     0.2312     5.4260     5.4260     0.0000
  1 C      6.6559     6.0000    -0.6559     3.9121     3.9121     0.0000
  2 C      5.9794     6.0000     0.0206     3.5559     3.5559     0.0000
  3 C      5.8399     6.0000     0.1601     3.1559     3.1559     0.0000
  4 C      5.6342     6.0000     0.3658     2.8950     2.8950    -0.0000
  5 C      6.0822     6.0000    -0.0822     3.5967     3.5967     0.0000
  6 C      5.7253     6.0000     0.2747     3.0588     3.0588     0.0000
  7 H      0.8303     1.0000     0.1697     1.1056     1.1056     0.0000
  8 H      0.7635     1.0000     0.2365     1.0714     1.0714     0.0000
  9 H      0.8149     1.0000     0.1851     1.1091     1.1091    -0.0000
 10 H      1.0317     1.0000    -0.0317     1.0766     1.0766     0.0000
 11 H      1.0863     1.0000    -0.0863     1.0792     1.0792     0.0000
 12 H      1.0244     1.0000    -0.0244     1.0722     1.0722     0.0000
 13 H      1.0466     1.0000    -0.0466     1.0985     1.0985     0.0000
 14 H      1.0357     1.0000    -0.0357     1.0680     1.0680    -0.0000
 15 C      6.4959     6.0000    -0.4959     3.9515     3.9515     0.0000
 16 H      0.9411     1.0000     0.0589     1.0585     1.0585     0.0000
 17 H      0.8848     1.0000     0.1152     1.1391     1.1391    -0.0000
 18 H      0.7988     1.0000     0.2012     1.0294     1.0294     0.0000
 19 H      0.7924     1.0000     0.2076     1.0577     1.0577     0.0000
 20 P     15.0157    15.0000    -0.0157     3.9967     3.9967    -0.0000
 21 H      0.9233     1.0000     0.0767     0.9618     0.9618     0.0000
 22 H      0.9128     1.0000     0.0872     0.9567     0.9567    -0.0000
 23 H      0.9160     1.0000     0.0840     0.9704     0.9704    -0.0000

  Mayer bond orders larger than 0.100000
B(  0-Ir,  1-C ) :   0.6542 B(  0-Ir,  2-C ) :   0.4170 B(  0-Ir,  3-C ) :   0.4514 
B(  0-Ir,  4-C ) :   0.4973 B(  0-Ir,  5-C ) :   0.4630 B(  0-Ir,  6-C ) :   0.4535 
B(  0-Ir, 15-C ) :   0.5163 B(  0-Ir, 16-H ) :   0.5581 B(  0-Ir, 20-P ) :   0.9473 
B(  1-C ,  5-C ) :   0.1399 B(  1-C ,  7-H ) :   0.9720 B(  1-C ,  8-H ) :   0.9203 
B(  1-C ,  9-H ) :   0.9727 B(  1-C , 20-P ) :   0.1003 B(  2-C ,  3-C ) :   1.0962 
B(  2-C ,  4-C ) :  -0.1361 B(  2-C ,  6-C ) :   0.9280 B(  2-C , 12-H ) :   1.0680 
B(  2-C , 15-C ) :   0.1390 B(  3-C ,  4-C ) :   0.8466 B(  3-C ,  5-C ) :  -0.1013 
B(  3-C ,  6-C ) :  -0.1438 B(  3-C , 13-H ) :   1.0767 B(  4-C ,  5-C ) :   0.9389 
B(  4-C ,  6-C ) :  -0.1663 B(  4-C , 14-H ) :   0.9889 B(  5-C ,  6-C ) :   1.0452 
B(  5-C , 10-H ) :   1.0696 B(  6-C , 11-H ) :   0.9929 B( 15-C , 16-H ) :   0.3454 
B( 15-C , 17-H ) :   0.9874 B( 15-C , 18-H ) :   0.9325 B( 15-C , 19-H ) :   0.9238 
B( 20-P , 21-H ) :   0.9299 B( 20-P , 22-H ) :   0.9253 B( 20-P , 23-H ) :   0.9416 


-------
TIMINGS
-------

Total SCF time: 0 days 0 hours 0 min 16 sec 

Total time                  ....      16.584 sec
Sum of individual times     ....      16.045 sec  ( 96.8%)

Fock matrix formation       ....      11.892 sec  ( 71.7%)
  Split-RI-J                ....       3.541 sec  ( 29.8% of F)
  XC integration            ....       8.030 sec  ( 67.5% of F)
    Basis function eval.    ....       0.713 sec  (  8.9% of XC)
    Density eval.           ....       2.494 sec  ( 31.1% of XC)
    XC-Functional eval.     ....       0.103 sec  (  1.3% of XC)
    XC-Potential eval.      ....       4.142 sec  ( 51.6% of XC)
Diagonalization             ....       1.241 sec  (  7.5%)
Density matrix formation    ....       0.070 sec  (  0.4%)
Population analysis         ....       0.078 sec  (  0.5%)
Initial guess               ....       1.512 sec  (  9.1%)
Orbital Transformation      ....       0.000 sec  (  0.0%)
Orbital Orthonormalization  ....       0.000 sec  (  0.0%)
DIIS solution               ....       0.755 sec  (  4.6%)
Grid generation             ....       0.498 sec  (  3.0%)


-------------------------------------------------------------------------------
                          DFT DISPERSION CORRECTION                            
                                                                               
                              DFTD3 V3.1  Rev 1                                
                          USING Becke-Johnson damping                          
-------------------------------------------------------------------------------
The TPSS functional is recognized
Active option DFTDOPT                   ...         4   

molecular C6(AA) [au] = 7346.273217 


            DFT-D V3
 parameters
 s6 scaling factor         :     1.0000 
 a1 scaling factor         :     0.4535 
 s8 scaling factor         :     1.9435 
 a2 scaling factor         :     4.4752 
 ad hoc parameters k1-k3   :    16.0000     1.3333    -4.0000 

 Edisp/kcal,au: -25.156099413815  -0.040088791915 
 E6   /kcal   : -11.575930984 
 E8   /kcal   : -13.580168430 
 % E8         :  53.983601379 

-------------------------   ----------------
Dispersion correction           -0.040088792
-------------------------   ----------------


-------------------------   --------------------
FINAL SINGLE POINT ENERGY      -721.511645206471
-------------------------   --------------------


                            ***************************************
                            *     ORCA property calculations      *
                            ***************************************

                                    ---------------------
                                    Active property flags
                                    ---------------------
   (+) Dipole Moment


------------------------------------------------------------------------------
                       ORCA ELECTRIC PROPERTIES CALCULATION
------------------------------------------------------------------------------

Dipole Moment Calculation                       ... on
Quadrupole Moment Calculation                   ... off
Polarizability Calculation                      ... off
GBWName                                         ... TMB31_T1.gbw
Electron density file                           ... TMB31_T1.scfp
The origin for moment calculation is the CENTER OF MASS  = (-0.014281,  0.004026 -0.013184)

-------------
DIPOLE MOMENT
-------------
                                X             Y             Z
Electronic contribution:      4.74215       6.82237     -17.58370
Nuclear contribution   :     -4.43915      -6.73459      18.18954
                        -----------------------------------------
Total Dipole Moment    :      0.30300       0.08778       0.60584
                        -----------------------------------------
Magnitude (a.u.)       :      0.68305
Magnitude (Debye)      :      1.73618



--------------------
Rotational spectrum 
--------------------
 
Rotational constants in cm-1:     0.054508     0.031967     0.031168 
Rotational constants in MHz :  1634.105298   958.356108   934.407674 

 Dipole components along the rotational axes: 
x,y,z [a.u.] :     0.306412     0.006538     0.610434 
x,y,z [Debye]:     0.778837     0.016617     1.551600 

 

Timings for individual modules:

Sum of individual times         ...       19.973 sec (=   0.333 min)
GTO integral calculation        ...        3.032 sec (=   0.051 min)  15.2 %
SCF iterations                  ...       16.941 sec (=   0.282 min)  84.8 %
                             ****ORCA TERMINATED NORMALLY****
TOTAL RUN TIME: 0 days 0 hours 0 minutes 20 seconds 661 msec
