
                                 *****************
                                 * O   R   C   A *
                                 *****************

           --- An Ab Initio, DFT and Semiempirical electronic structure package ---

                  #######################################################
                  #                        -***-                        #
                  #          Department of theory and spectroscopy      #
                  #               Directorship: Frank Neese             #
                  #        Max Planck Institute fuer Kohlenforschung    #
                  #                Kaiser Wilhelm Platz 1               #
                  #                 D-45470 Muelheim/Ruhr               #
                  #                      Germany                        #
                  #                                                     #
                  #                  All rights reserved                #
                  #                        -***-                        #
                  #######################################################


                         Program Version 4.2.0 -  RELEASE  -


 With contributions from (in alphabetic order):
   Daniel Aravena         : Magnetic Suceptibility
   Michael Atanasov       : Ab Initio Ligand Field Theory (pilot matlab implementation)
   Alexander A. Auer      : GIAO ZORA, VPT2
   Ute Becker             : Parallelization
   Giovanni Bistoni       : ED, misc. LED, open-shell LED, HFLED
   Martin Brehm           : Molecular dynamics
   Dmytro Bykov           : SCF Hessian
   Vijay G. Chilkuri      : MRCI spin determinant printing, contributions to CSF-ICE
   Dipayan Datta          : RHF DLPNO-CCSD density
   Achintya Kumar Dutta   : EOM-CC, STEOM-CC
   Dmitry Ganyushin       : Spin-Orbit,Spin-Spin,Magnetic field MRCI
   Miquel Garcia          : C-PCM Hessian, Gaussian charge scheme
   Yang Guo               : DLPNO-NEVPT2, CIM, IAO-localization
   Andreas Hansen         : Spin unrestricted coupled pair/coupled cluster methods
   Benjamin Helmich-Paris : CASSCF linear response (MC-RPA)
   Lee Huntington         : MR-EOM, pCC
   Robert Izsak           : Overlap fitted RIJCOSX, COSX-SCS-MP3, EOM
   Christian Kollmar      : KDIIS, OOCD, Brueckner-CCSD(T), CCSD density
   Simone Kossmann        : Meta GGA functionals, TD-DFT gradient, OOMP2, MP2 Hessian
   Martin Krupicka        : AUTO-CI
   Lucas Lang             : DCDCAS
   Dagmar Lenk            : GEPOL surface, SMD
   Dimitrios Liakos       : Extrapolation schemes; Compound Job, initial MDCI parallelization
   Dimitrios Manganas     : Further ROCIS development; embedding schemes
   Dimitrios Pantazis     : SARC Basis sets
   Taras Petrenko         : DFT Hessian,TD-DFT gradient, ASA, ECA, R-Raman, ABS, FL, XAS/XES, NRVS
   Peter Pinski           : DLPNO-MP2, DLPNO-MP2 Gradient
   Christoph Reimann      : Effective Core Potentials
   Marius Retegan         : Local ZFS, SOC
   Christoph Riplinger    : Optimizer, TS searches, QM/MM, DLPNO-CCSD(T), (RO)-DLPNO pert. Triples
   Tobias Risthaus        : Range-separated hybrids, TD-DFT gradient, RPA, STAB
   Michael Roemelt        : Original ROCIS implementation
   Masaaki Saitow         : Open-shell DLPNO-CCSD energy and density
   Barbara Sandhoefer     : DKH picture change effects
   Avijit Sen             : IP-ROCIS
   Kantharuban Sivalingam : CASSCF convergence, NEVPT2, FIC-MRCI
   Bernardo de Souza      : ESD, SOC TD-DFT
   Georgi Stoychev        : AutoAux, RI-MP2 NMR
   Willem Van den Heuvel  : Paramagnetic NMR
   Boris Wezisla          : Elementary symmetry handling
   Frank Wennmohs         : Technical directorship


 We gratefully acknowledge several colleagues who have allowed us to
 interface, adapt or use parts of their codes:
   Stefan Grimme, W. Hujo, H. Kruse,             : VdW corrections, initial TS optimization,
                  C. Bannwarth                     DFT functionals, gCP, sTDA/sTD-DF
   Ed Valeev, F. Pavosevic, A. Kumar             : LibInt (2-el integral package), F12 methods
   Garnet Chan, S. Sharma, J. Yang, R. Olivares  : DMRG
   Ulf Ekstrom                                   : XCFun DFT Library
   Mihaly Kallay                                 : mrcc  (arbitrary order and MRCC methods)
   Andreas Klamt, Michael Diedenhofen            : otool_cosmo (COSMO solvation model)
   Jiri Pittner, Ondrej Demel                    : Mk-CCSD
   Frank Weinhold                                : gennbo (NPA and NBO analysis)
   Christopher J. Cramer and Donald G. Truhlar   : smd solvation model
   Lars Goerigk                                  : TD-DFT with DH, B97 family of functionals
   V. Asgeirsson, H. Jonsson                     : NEB implementation
   FAccTs GmbH                                   : IRC, NEB, NEB-TS, Multilevel, MM, QM/MM, CI optimization
   S Lehtola, MJT Oliveira, MAL Marques          : LibXC Library


 Your calculation uses the libint2 library for the computation of 2-el integrals
 For citations please refer to: http://libint.valeyev.net

 Your ORCA version has been built with support for libXC version: 4.2.3
 For citations please refer to: https://tddft.org/programs/libxc/

 This ORCA versions uses:
   CBLAS   interface :  Fast vector & matrix operations
   LAPACKE interface :  Fast linear algebra routines
   SCALAPACK package :  Parallel linear algebra routines


Your calculation utilizes the atom-pairwise dispersion correction
with the Becke-Johnson damping scheme (D3BJ)
Cite in your paper:
S.Grimme, S.Ehrlich, L.Goerigk, J Comput Chem, (2011), 32, 1456–1465 
S.Grimme, J.Antony, S.Ehrlich and H.Krieg, J.Chem.Phys., 132, (2010), 154104 
   

----- Orbital basis set information -----
Your calculation utilizes the basis: def2-TZVPPD
   F. Weigend and R. Ahlrichs, Phys. Chem. Chem. Phys. 7, 3297 (2005).
   D. Rappoport and F. Furche, J. Chem. Phys. 133 134105 (2010).

----- AuxJ basis set information -----
Your calculation utilizes the auxiliary basis: def2/J
   F. Weigend, Phys. Chem. Chem. Phys. 8, 1057 (2006).

cite the ECPs for Ir [Def2-ECP] as follows:
Ce-Yb(ecp-28): M. Dolg, H. Stoll, H.Preuss, J. Chem. Phys., 1989, 90, 1730-1734.
Y-Cd(ecp-28), Hf-Hg(ecp-46): D. Andrae,U. Haeussermann, M. Dolg, H. Stoll, H. Preuss, Theor. Chim. Acta, 1990, 77, 123-141.
In-Sb(ecp-28), Tl-Bi(ecp-46): B. Metz, H. Stoll, M. Dolg, J. Chem. Phys., 2000, 113, 2563-2569.
Te-Xe(ecp-28), Po-Rn(ecp-46): K. A. Peterson, D. Figgen, E. Goll, H. Stoll, M. Dolg, J. Chem. Phys., 2003, 119, 11113-11123.
Rb(ecp-28), Cs(ecp-46): T. Leininger, A. Nicklass, W. Kuechle, H. Stoll, M. Dolg, A. Bergner, Chem. Phys. Lett., 1996, 255, 274-280.
Sr(ecp-28), Ba(ecp-46): M. Kaupp, P. V. Schleyer, H. Stoll and H. Preuss, J. Chem. Phys., 1991, 94, 1360-1366.
La(ecp-46): M. Dolg, H. Stoll, A. Savin, H. Preuss, Theor. Chim. Acta, 1989, 75, 173-194.
Lu(ecp-28): X. Cao, M. Dolg, J. Chem. Phys., 2001, 115, 7348-7355.

ECP parameters for Ir [Def2-ECP] have been obtained from:
TURBOMOLE (7.0.2)

================================================================================
                                        WARNINGS
                       Please study these warnings very carefully!
================================================================================


INFO   : the flag for use of LIBINT has been found!

================================================================================
                                       INPUT FILE
================================================================================
NAME = TMB31_C1.in
|  1> #
|  2> # TMB31_C1 TPSS-D3BJ/Def2-TZVPPD
|  3> #
|  4> ! tpss d3bj def2-tzvppd def2/j grid4 nofinalgrid
|  5> 
|  6> *xyz 1 1
|  7> Ir      -0.040708    0.096324    0.064455 
|  8> C       -0.971708    0.418734    1.931461 
|  9> C        1.819460    0.364204   -1.190947 
| 10> C        1.490903   -0.994938   -1.162590 
| 11> C        1.450197   -1.406167    0.225985 
| 12> C        1.875844   -0.290195    1.023097 
| 13> C        2.052625    0.814608    0.164170 
| 14> H       -0.394638    1.150210    2.498372 
| 15> H       -1.993156    0.794195    1.837094 
| 16> H       -1.008781   -0.505981    2.508304 
| 17> H        1.977900   -0.288415    2.097324 
| 18> H        2.352296    1.808383    0.458691 
| 19> H        1.885000    0.981073   -2.074563 
| 20> H        1.275763   -1.618283   -2.016436 
| 21> H        1.275639   -2.406893    0.589421 
| 22> C       -1.335861    2.101294   -0.927849 
| 23> H       -0.822201    1.778454    0.045587 
| 24> H       -0.969200    3.125001   -0.997930 
| 25> H       -1.110952    1.579089   -1.850904 
| 26> H       -2.401764    2.084149   -0.716661 
| 27> P       -1.870306   -1.156932   -0.405763 
| 28> H       -1.625569   -2.441008   -0.924735 
| 29> H       -2.747711   -1.466666    0.650785 
| 30> H       -2.792266   -0.681495   -1.360892 
| 31> *
| 32> 
| 33> %maxcore 5000
| 34> 
| 35> %pal
| 36> nprocs = 24
| 37> end
| 38> 
| 39> 
| 40>                          ****END OF INPUT****
================================================================================

                       ****************************
                       * Single Point Calculation *
                       ****************************

---------------------------------
CARTESIAN COORDINATES (ANGSTROEM)
---------------------------------
  Ir    -0.040708    0.096324    0.064455
  C     -0.971708    0.418734    1.931461
  C      1.819460    0.364204   -1.190947
  C      1.490903   -0.994938   -1.162590
  C      1.450197   -1.406167    0.225985
  C      1.875844   -0.290195    1.023097
  C      2.052625    0.814608    0.164170
  H     -0.394638    1.150210    2.498372
  H     -1.993156    0.794195    1.837094
  H     -1.008781   -0.505981    2.508304
  H      1.977900   -0.288415    2.097324
  H      2.352296    1.808383    0.458691
  H      1.885000    0.981073   -2.074563
  H      1.275763   -1.618283   -2.016436
  H      1.275639   -2.406893    0.589421
  C     -1.335861    2.101294   -0.927849
  H     -0.822201    1.778454    0.045587
  H     -0.969200    3.125001   -0.997930
  H     -1.110952    1.579089   -1.850904
  H     -2.401764    2.084149   -0.716661
  P     -1.870306   -1.156932   -0.405763
  H     -1.625569   -2.441008   -0.924735
  H     -2.747711   -1.466666    0.650785
  H     -2.792266   -0.681495   -1.360892

----------------------------
CARTESIAN COORDINATES (A.U.)
----------------------------
  NO LB      ZA    FRAG     MASS         X           Y           Z
   0 Ir   17.0000*   0   192.220   -0.076927    0.182026    0.121802
   1 C     6.0000    0    12.011   -1.836262    0.791293    3.649932
   2 C     6.0000    0    12.011    3.438281    0.688246   -2.250564
   3 C     6.0000    0    12.011    2.817398   -1.880160   -2.196977
   4 C     6.0000    0    12.011    2.740475   -2.657271    0.427050
   5 C     6.0000    0    12.011    3.544831   -0.548389    1.933373
   6 C     6.0000    0    12.011    3.878899    1.539386    0.310236
   7 H     1.0000    0     1.008   -0.745758    2.173582    4.721239
   8 H     1.0000    0     1.008   -3.766519    1.500811    3.471605
   9 H     1.0000    0     1.008   -1.906320   -0.956166    4.740008
  10 H     1.0000    0     1.008    3.737689   -0.545025    3.963368
  11 H     1.0000    0     1.008    4.445195    3.417349    0.866800
  12 H     1.0000    0     1.008    3.562134    1.853959   -3.920356
  13 H     1.0000    0     1.008    2.410843   -3.058112   -3.810512
  14 H     1.0000    0     1.008    2.410608   -4.548369    1.113844
  15 C     6.0000    0    12.011   -2.524411    3.970870   -1.753381
  16 H     1.0000    0     1.008   -1.553735    3.360791    0.086147
  17 H     1.0000    0     1.008   -1.831523    5.905396   -1.885814
  18 H     1.0000    0     1.008   -2.099395    2.984046   -3.497702
  19 H     1.0000    0     1.008   -4.538676    3.938471   -1.354293
  20 P    15.0000    0    30.974   -3.534366   -2.186285   -0.766781
  21 H     1.0000    0     1.008   -3.071880   -4.612837   -1.747496
  22 H     1.0000    0     1.008   -5.192421   -2.771597    1.229805
  23 H     1.0000    0     1.008   -5.276618   -1.287839   -2.571713
* core charge reduced due to ECP

--------------------------------
INTERNAL COORDINATES (ANGSTROEM)
--------------------------------
 Ir     0   0   0     0.000000000000     0.00000000     0.00000000
 C      1   0   0     2.111023593458     0.00000000     0.00000000
 C      1   2   0     2.260092667177   146.73423200     0.00000000
 C      3   1   2     1.398578134343    71.34923459   124.48758774
 C      4   3   1     1.448760435511   107.57049610   303.04956045
 C      5   4   3     1.435951396788   107.64531964   355.07564215
 C      6   5   4     1.410530673931   107.92907410     5.29699572
 H      2   1   3     1.090621384990   109.19606122    14.65305585
 H      2   1   3     1.092351642061   112.86021160   134.78801588
 H      2   1   3     1.090513679512   110.68968961   255.68292322
 H      6   5   4     1.079065448926   125.58701144   181.68842364
 H      7   6   5     1.078950452202   126.15761453   178.88712284
 H      3   1   2     1.079629607883   124.91098388   245.73915043
 H      4   3   1     1.078840674215   126.32038968   121.28422411
 H      5   4   3     1.078892371155   126.20641329   183.37512096
 C      1   2   3     2.584955168417    90.00449073   258.72145129
 H     16   1   2     1.147017832161    39.78355857    37.15076720
 H     16   1   2     1.089645656776   125.78795687    94.36583538
 H     16   1   2     1.084118376069    81.33199921   201.76799442
 H     16   1   2     1.086758265567   113.86513983   311.17262068
 P      1   2   3     2.266976932098    84.94835014   171.89847696
 H     21   1   2     1.406442074786   116.15696426   229.44369795
 H     21   1   2     1.407859496216   117.96560652   349.01392592
 H     21   1   2     1.410078717381   118.80223524   110.21613585

---------------------------
INTERNAL COORDINATES (A.U.)
---------------------------
 Ir     0   0   0     0.000000000000     0.00000000     0.00000000
 C      1   0   0     3.989256453882     0.00000000     0.00000000
 C      1   2   0     4.270956178248   146.73423200     0.00000000
 C      3   1   2     2.642929650799    71.34923459   124.48758774
 C      4   3   1     2.737760456776   107.57049610   303.04956045
 C      5   4   3     2.713554881551   107.64531964   355.07564215
 C      6   5   4     2.665516677224   107.92907410     5.29699572
 H      2   1   3     2.060975733429   109.19606122    14.65305585
 H      2   1   3     2.064245445435   112.86021160   134.78801588
 H      2   1   3     2.060772199573   110.68968961   255.68292322
 H      6   5   4     2.039138179046   125.58701144   181.68842364
 H      7   6   5     2.038920866732   126.15761453   178.88712284
 H      3   1   2     2.040204284971   124.91098388   245.73915043
 H      4   3   1     2.038713416402   126.32038968   121.28422411
 H      5   4   3     2.038811109459   126.20641329   183.37512096
 C      1   2   3     4.884857336772    90.00449073   258.72145129
 H     16   1   2     2.167549573509    39.78355857    37.15076720
 H     16   1   2     2.059131874324   125.78795687    94.36583538
 H     16   1   2     2.048686827522    81.33199921   201.76799442
 H     16   1   2     2.053675495697   113.86513983   311.17262068
 P      1   2   3     4.283965553582    84.94835014   171.89847696
 H     21   1   2     2.657790344570   116.15696426   229.44369795
 H     21   1   2     2.660468882888   117.96560652   349.01392592
 H     21   1   2     2.664662603120   118.80223524   110.21613585

---------------------
BASIS SET INFORMATION
---------------------
There are 4 groups of distinct atoms

 Group   1 Type Ir  : 8s8p6d2f1g contracted to 6s5p3d2f1g pattern {311111/41111/411/11/1}
 Group   2 Type C   : 12s6p3d1f contracted to 6s3p3d1f pattern {621111/411/111/1}
 Group   3 Type H   : 5s3p1d contracted to 3s3p1d pattern {311/111/1}
 Group   4 Type P   : 15s9p4d1f contracted to 6s5p4d1f pattern {732111/51111/1111/1}

Atom   0Ir   basis set group =>   1
Atom   1C    basis set group =>   2
Atom   2C    basis set group =>   2
Atom   3C    basis set group =>   2
Atom   4C    basis set group =>   2
Atom   5C    basis set group =>   2
Atom   6C    basis set group =>   2
Atom   7H    basis set group =>   3
Atom   8H    basis set group =>   3
Atom   9H    basis set group =>   3
Atom  10H    basis set group =>   3
Atom  11H    basis set group =>   3
Atom  12H    basis set group =>   3
Atom  13H    basis set group =>   3
Atom  14H    basis set group =>   3
Atom  15C    basis set group =>   2
Atom  16H    basis set group =>   3
Atom  17H    basis set group =>   3
Atom  18H    basis set group =>   3
Atom  19H    basis set group =>   3
Atom  20P    basis set group =>   4
Atom  21H    basis set group =>   3
Atom  22H    basis set group =>   3
Atom  23H    basis set group =>   3
---------------------------------
AUXILIARY/J BASIS SET INFORMATION
---------------------------------
There are 4 groups of distinct atoms

 Group   1 Type Ir  : 11s5p5d3f3g contracted to 8s5p5d2f3g pattern {41111111/11111/11111/21/111}
 Group   2 Type C   : 12s5p4d2f1g contracted to 6s4p3d1f1g pattern {711111/2111/211/2/1}
 Group   3 Type H   : 5s2p1d contracted to 3s1p1d pattern {311/2/1}
 Group   4 Type P   : 14s5p5d2f1g contracted to 8s4p3d1f1g pattern {71111111/2111/311/2/1}

Atom   0Ir   basis set group =>   1
Atom   1C    basis set group =>   2
Atom   2C    basis set group =>   2
Atom   3C    basis set group =>   2
Atom   4C    basis set group =>   2
Atom   5C    basis set group =>   2
Atom   6C    basis set group =>   2
Atom   7H    basis set group =>   3
Atom   8H    basis set group =>   3
Atom   9H    basis set group =>   3
Atom  10H    basis set group =>   3
Atom  11H    basis set group =>   3
Atom  12H    basis set group =>   3
Atom  13H    basis set group =>   3
Atom  14H    basis set group =>   3
Atom  15C    basis set group =>   2
Atom  16H    basis set group =>   3
Atom  17H    basis set group =>   3
Atom  18H    basis set group =>   3
Atom  19H    basis set group =>   3
Atom  20P    basis set group =>   4
Atom  21H    basis set group =>   3
Atom  22H    basis set group =>   3
Atom  23H    basis set group =>   3
-------------------------
ECP PARAMETER INFORMATION
-------------------------

 Group 1, Type Ir ECP Def2-ECP (replacing 60 core electrons, lmax=3)

Atom   0Ir   ECP group =>   1



           ************************************************************
           *        Program running with 24 parallel MPI-processes    *
           *              working on a common directory               *
           ************************************************************
------------------------------------------------------------------------------
                           ORCA GTO INTEGRAL CALCULATION
                           -- RI-GTO INTEGRALS CHOSEN --
------------------------------------------------------------------------------

                         BASIS SET STATISTICS AND STARTUP INFO

Gaussian basis set:
 # of primitive gaussian shells          ...  343
 # of primitive gaussian functions       ...  803
 # of contracted shells                  ...  229
 # of contracted basis functions         ...  621
 Highest angular momentum                ...    4
 Maximum contraction depth               ...    7
Auxiliary gaussian basis set:
 # of primitive gaussian shells          ...  342
 # of primitive gaussian functions       ...  906
 # of contracted shells                  ...  220
 # of contracted aux-basis functions     ...  648
 Highest angular momentum                ...    4
 Maximum contraction depth               ...    7
Ratio of auxiliary to basis functions    ...  1.04
Integral package used                  ... LIBINT
 One Electron integrals                  
   ECP integrals                         ... done
 Ordering auxiliary basis shells         ... done
 Integral threshhold             Thresh  ...  1.000e-10
 Primitive cut-off               TCut    ...  1.000e-11
 Pre-screening matrix                    ... done
 Shell pair data                         ... 
 Ordering of the shell pairs             ... done (   0.004 sec) 24005 of 26335 pairs
 Determination of significant pairs      ... done (   0.000 sec)
 Creation of shell pair data             ... done (   0.002 sec)
 Storage of shell pair data              ... done (   0.003 sec)
 Shell pair data done in (   0.010 sec)
 Computing two index integrals           ... done
 Cholesky decomposition of the V-matrix  ... done


Timings:
 Total evaluation time                   ...   2.555 sec (  0.043 min)
 One electron matrix time                ...   2.270 sec (  0.038 min) = 88.8%
 Schwartz matrix evaluation time         ...   0.232 sec (  0.004 min) =  9.1%
 Two index repulsion integral time       ...   0.009 sec (  0.000 min) =  0.4%
 Cholesky decomposition of V             ...   0.006 sec (  0.000 min) =  0.3%
 Three index repulsion integral time     ...   0.000 sec (  0.000 min) =  0.0%



           ************************************************************
           *        Program running with 24 parallel MPI-processes    *
           *              working on a common directory               *
           ************************************************************
-------------------------------------------------------------------------------
                                 ORCA SCF
-------------------------------------------------------------------------------

------------
SCF SETTINGS
------------
Hamiltonian:
 Density Functional     Method          .... DFT(GTOs)
 Exchange Functional    Exchange        .... TPSS
 Correlation Functional Correlation     .... TPSS
 LDA part of GGA corr.  LDAOpt          .... PW91-LDA
 Gradients option       PostSCFGGA      .... off
   Density functional embedding theory  .... OFF
   NL short-range parameter             ....  5.000000
 RI-approximation to the Coulomb term is turned on
   Number of auxiliary basis functions  .... 648


General Settings:
 Integral files         IntName         .... TMB31_C1
 Hartree-Fock type      HFTyp           .... RHF
 Total Charge           Charge          ....    1
 Multiplicity           Mult            ....    1
 Number of Electrons    NEL             ....   88
 Basis Dimension        Dim             ....  621
 Nuclear Repulsion      ENuc            ....    705.0157848725 Eh

Convergence Acceleration:
 DIIS                   CNVDIIS         .... on
   Start iteration      DIISMaxIt       ....    12
   Startup error        DIISStart       ....  0.200000
   # of expansion vecs  DIISMaxEq       ....     5
   Bias factor          DIISBfac        ....   1.050
   Max. coefficient     DIISMaxC        ....  10.000
 Newton-Raphson         CNVNR           .... off
 SOSCF                  CNVSOSCF        .... off
 Level Shifting         CNVShift        .... on
   Level shift para.    LevelShift      ....    0.2500
   Turn off err/grad.   ShiftErr        ....    0.0010
 Zerner damping         CNVZerner       .... off
 Static damping         CNVDamp         .... on
   Fraction old density DampFac         ....    0.7000
   Max. Damping (<1)    DampMax         ....    0.9800
   Min. Damping (>=0)   DampMin         ....    0.0000
   Turn off err/grad.   DampErr         ....    0.1000
 Fernandez-Rico         CNVRico         .... off

SCF Procedure:
 Maximum # iterations   MaxIter         ....   125
 SCF integral mode      SCFMode         .... Direct
   Integral package                     .... LIBINT
 Reset frequency        DirectResetFreq ....    20
 Integral Threshold     Thresh          ....  1.000e-10 Eh
 Primitive CutOff       TCut            ....  1.000e-11 Eh

Convergence Tolerance:
 Convergence Check Mode ConvCheckMode   .... Total+1el-Energy
 Convergence forced     ConvForced      .... 0
 Energy Change          TolE            ....  1.000e-06 Eh
 1-El. energy change                    ....  1.000e-03 Eh
 DIIS Error             TolErr          ....  1.000e-06


Diagonalization of the overlap matrix:
Smallest eigenvalue                        ... 9.746e-07
Time for diagonalization                   ...    0.066 sec
Threshold for overlap eigenvalues          ... 1.000e-08
Number of eigenvalues below threshold      ... 0
Time for construction of square roots      ...    0.058 sec
Total time needed                          ...    0.126 sec

-------------------
DFT GRID GENERATION
-------------------

General Integration Accuracy     IntAcc      ...  4.670
Radial Grid Type                 RadialGrid  ... Gauss-Chebyshev
Angular Grid (max. acc.)         AngularGrid ... Lebedev-302
Angular grid pruning method      GridPruning ... 3 (G Style)
Weight generation scheme         WeightScheme... Becke
Basis function cutoff            BFCut       ...    1.0000e-10
Integration weight cutoff        WCut        ...    1.0000e-14
Grids for H and He will be reduced by one unit

# of grid points (after initial pruning)     ... 112892 (   0.0 sec)
# of grid points (after weights+screening)   ... 100084 (   0.1 sec)
nearest neighbour list constructed           ...    0.0 sec
Grid point re-assignment to atoms done       ...    0.0 sec
Grid point division into batches done        ...    0.3 sec
Reduced shell lists constructed in    0.4 sec

Total number of grid points                  ...   100084
Total number of batches                      ...     1575
Average number of points per batch           ...       63
Average number of grid points per atom       ...     4170
Average number of shells per batch           ...   180.76 (78.94%)
Average number of basis functions per batch  ...   509.24 (82.00%)
Average number of large shells per batch     ...   149.13 (82.50%)
Average number of large basis fcns per batch ...   414.66 (81.43%)
Maximum spatial batch extension              ...   1.94,  1.87,  1.92 au
Average spatial batch extension              ...   0.05,  0.05,  0.05 au

Time for grid setup =    0.471 sec

------------------------------
INITIAL GUESS: MODEL POTENTIAL
------------------------------
Loading Hartree-Fock densities                     ... done
  calling /sw/apps/orca/orca_4_2_0_linux_x86-64_openmpi314/orca TMB31_C1_atom77.inp > TMB31_C1_atom77.out in order to generate an atomic fitting density for atom 0 (Ir with ECP) on-the-fly... 
    atom 0 (Ir), assumed electronic state with S=4: 1s2 2s2 2p6 3s2 3p6 4s2 3d10 4p6 5s2 4d10 5p6 6s2 4f14 5d7           ... done
Calculating cut-offs                               ... done
Setting up the integral package                    ... done
Initializing the effective Hamiltonian             ... done
Starting the Coulomb interaction                   ... done (   0.0 sec)
Reading the grid                                   ... done
Mapping shells                                     ... done
Starting the XC term evaluation                    ... done (   0.2 sec)
  promolecular density results
     # of electrons  =    148.994632463
     EX              =   -411.936305290
     EC              =     -7.146768271
     EX+EC           =   -419.083073561
Transforming the Hamiltonian                       ... done (   0.0 sec)
Diagonalizing the Hamiltonian                      ... done (   0.1 sec)
Back transforming the eigenvectors                 ... done (   0.0 sec)
Now organizing SCF variables                       ... done
                      ------------------
                      INITIAL GUESS DONE (   2.1 sec)
                      ------------------
--------------
SCF ITERATIONS
--------------
ITER       Energy         Delta-E        Max-DP      RMS-DP      [F,P]     Damp
               ***  Starting incremental Fock matrix formation  ***
  0   -716.2848645718   0.00000000000031.95424530  0.12941953  1.0303849 0.7000
  1   -718.9562706109  -2.671406039093 9.74715695  0.03846581  0.3191158 0.7000
                               ***Turning on DIIS***
  2   -719.5466584369  -0.590387825994 6.99192709  0.02879748  0.1649735 0.7000
  3   -720.1823035237  -0.635645086815 4.97998817  0.02076150  0.1162888 0.7000
  4   -720.5783645958  -0.39606107203511.69265343  0.04894741  0.0823558 0.0000
  5   -721.4624967354  -0.884132139654 0.12925123  0.00138534  0.0478189 0.0000
  6   -721.4812623400  -0.018765604538 0.04159551  0.00046293  0.0294581 0.0000
  7   -721.4858173274  -0.004554987413 0.02005553  0.00020920  0.0137109 0.0000
  8   -721.4867912251  -0.000973897685 0.00726392  0.00009174  0.0035004 0.0000
  9   -721.4868775915  -0.000086366400 0.00921146  0.00005128  0.0025228 0.0000
 10   -721.4869146982  -0.000037106743 0.00768525  0.00005073  0.0005180 0.0000
 11   -721.4869215157  -0.000006817506 0.00272061  0.00001686  0.0003138 0.0000
 12   -721.4869221508  -0.000000635071 0.00252891  0.00001143  0.0002267 0.0000
 13   -721.4869222848  -0.000000133984 0.00376256  0.00001958  0.0001960 0.0000
 14   -721.4869224034  -0.000000118663 0.00303822  0.00001610  0.0000916 0.0000
                 **** Energy Check signals convergence ****

               *****************************************************
               *                     SUCCESS                       *
               *           SCF CONVERGED AFTER  15 CYCLES          *
               *****************************************************


----------------
TOTAL SCF ENERGY
----------------

Total Energy       :         -721.48692243 Eh          -19632.65726 eV

Components:
Nuclear Repulsion  :          705.01578487 Eh           19184.45483 eV
Electronic Energy  :        -1426.50270730 Eh          -38817.11209 eV
One Electron Energy:        -2409.76043624 Eh          -65572.91513 eV
Two Electron Energy:          983.25772893 Eh           26755.80304 eV

Virial components:
Potential Energy   :        -1371.96887924 Eh          -37333.17119 eV
Kinetic Energy     :          650.48195680 Eh           17700.51392 eV
Virial Ratio       :            2.10915747


DFT components:
N(Alpha)           :       43.999853340942 electrons
N(Beta)            :       43.999853340942 electrons
N(Total)           :       87.999706681883 electrons
E(X)               :      -74.241833453773 Eh       
E(C)               :       -3.150398456697 Eh       
E(XC)              :      -77.392231910470 Eh       
DFET-embed. en.    :        0.000000000000 Eh       

---------------
SCF CONVERGENCE
---------------

  Last Energy change         ...   -2.7891e-08  Tolerance :   1.0000e-06
  Last MAX-Density change    ...    4.0661e-03  Tolerance :   1.0000e-05
  Last RMS-Density change    ...    1.8008e-05  Tolerance :   1.0000e-06
  Last DIIS Error            ...    1.4220e-05  Tolerance :   1.0000e-06

             **** THE GBW FILE WAS UPDATED (TMB31_C1.gbw) ****
             **** DENSITY FILE WAS UPDATED (TMB31_C1.scfp) ****
             **** ENERGY FILE WAS UPDATED (TMB31_C1.en.tmp) ****
             **** THE GBW FILE WAS UPDATED (TMB31_C1.gbw) ****
             **** DENSITY FILE WAS UPDATED (TMB31_C1.scfp) ****
----------------
ORBITAL ENERGIES
----------------

  NO   OCC          E(Eh)            E(eV) 
   0   2.0000     -76.778261     -2089.2427 
   1   2.0000     -10.182318      -277.0750 
   2   2.0000     -10.180446      -277.0240 
   3   2.0000     -10.175822      -276.8982 
   4   2.0000     -10.174786      -276.8700 
   5   2.0000     -10.172889      -276.8184 
   6   2.0000     -10.153435      -276.2890 
   7   2.0000     -10.110370      -275.1172 
   8   2.0000      -6.554042      -178.3445 
   9   2.0000      -4.731146      -128.7410 
  10   2.0000      -4.730969      -128.7362 
  11   2.0000      -4.729175      -128.6874 
  12   2.0000      -3.757396      -102.2440 
  13   2.0000      -2.142123       -58.2901 
  14   2.0000      -2.123515       -57.7838 
  15   2.0000      -2.112698       -57.4894 
  16   2.0000      -1.008179       -27.4339 
  17   2.0000      -0.844480       -22.9795 
  18   2.0000      -0.836701       -22.7678 
  19   2.0000      -0.824848       -22.4453 
  20   2.0000      -0.781300       -21.2603 
  21   2.0000      -0.755826       -20.5671 
  22   2.0000      -0.675625       -18.3847 
  23   2.0000      -0.673671       -18.3315 
  24   2.0000      -0.663604       -18.0576 
  25   2.0000      -0.578054       -15.7296 
  26   2.0000      -0.560131       -15.2419 
  27   2.0000      -0.550218       -14.9722 
  28   2.0000      -0.546210       -14.8631 
  29   2.0000      -0.543422       -14.7873 
  30   2.0000      -0.536515       -14.5993 
  31   2.0000      -0.525703       -14.3051 
  32   2.0000      -0.518195       -14.1008 
  33   2.0000      -0.516766       -14.0619 
  34   2.0000      -0.515803       -14.0357 
  35   2.0000      -0.495077       -13.4717 
  36   2.0000      -0.488902       -13.3037 
  37   2.0000      -0.483732       -13.1630 
  38   2.0000      -0.457213       -12.4414 
  39   2.0000      -0.432399       -11.7662 
  40   2.0000      -0.414154       -11.2697 
  41   2.0000      -0.385962       -10.5026 
  42   2.0000      -0.373412       -10.1610 
  43   2.0000      -0.356699        -9.7063 
  44   0.0000      -0.245234        -6.6731 
  45   0.0000      -0.191340        -5.2066 
  46   0.0000      -0.152151        -4.1403 
  47   0.0000      -0.149335        -4.0636 
  48   0.0000      -0.143648        -3.9089 
  49   0.0000      -0.139700        -3.8014 
  50   0.0000      -0.138907        -3.7798 
  51   0.0000      -0.117267        -3.1910 
  52   0.0000      -0.109117        -2.9692 
  53   0.0000      -0.106372        -2.8945 
  54   0.0000      -0.091686        -2.4949 
  55   0.0000      -0.084976        -2.3123 
  56   0.0000      -0.082191        -2.2365 
  57   0.0000      -0.078790        -2.1440 
  58   0.0000      -0.071879        -1.9559 
  59   0.0000      -0.063834        -1.7370 
  60   0.0000      -0.057873        -1.5748 
  61   0.0000      -0.048094        -1.3087 
  62   0.0000      -0.044086        -1.1996 
  63   0.0000      -0.035537        -0.9670 
  64   0.0000      -0.030584        -0.8322 
  65   0.0000      -0.029065        -0.7909 
  66   0.0000      -0.022271        -0.6060 
  67   0.0000      -0.020291        -0.5521 
  68   0.0000      -0.016265        -0.4426 
  69   0.0000      -0.012563        -0.3419 
  70   0.0000      -0.004958        -0.1349 
  71   0.0000      -0.003863        -0.1051 
  72   0.0000      -0.000394        -0.0107 
  73   0.0000       0.003541         0.0964 
  74   0.0000       0.009121         0.2482 
  75   0.0000       0.013885         0.3778 
  76   0.0000       0.018395         0.5005 
  77   0.0000       0.021285         0.5792 
  78   0.0000       0.027527         0.7490 
  79   0.0000       0.036186         0.9847 
  80   0.0000       0.042376         1.1531 
  81   0.0000       0.048541         1.3209 
  82   0.0000       0.053387         1.4527 
  83   0.0000       0.057688         1.5698 
  84   0.0000       0.061958         1.6860 
  85   0.0000       0.066963         1.8222 
  86   0.0000       0.072370         1.9693 
  87   0.0000       0.076634         2.0853 
  88   0.0000       0.083725         2.2783 
  89   0.0000       0.087327         2.3763 
  90   0.0000       0.095408         2.5962 
  91   0.0000       0.105761         2.8779 
  92   0.0000       0.114804         3.1240 
  93   0.0000       0.117943         3.2094 
  94   0.0000       0.123398         3.3578 
  95   0.0000       0.124358         3.3840 
  96   0.0000       0.128477         3.4960 
  97   0.0000       0.132689         3.6106 
  98   0.0000       0.137705         3.7472 
  99   0.0000       0.140506         3.8233 
 100   0.0000       0.143320         3.8999 
 101   0.0000       0.146077         3.9750 
 102   0.0000       0.148914         4.0522 
 103   0.0000       0.150828         4.1042 
 104   0.0000       0.155549         4.2327 
 105   0.0000       0.160337         4.3630 
 106   0.0000       0.163039         4.4365 
 107   0.0000       0.166930         4.5424 
 108   0.0000       0.170312         4.6344 
 109   0.0000       0.176833         4.8119 
 110   0.0000       0.180506         4.9118 
 111   0.0000       0.183142         4.9836 
 112   0.0000       0.185434         5.0459 
 113   0.0000       0.188399         5.1266 
 114   0.0000       0.196071         5.3354 
 115   0.0000       0.201716         5.4890 
 116   0.0000       0.203076         5.5260 
 117   0.0000       0.208062         5.6616 
 118   0.0000       0.210257         5.7214 
 119   0.0000       0.213370         5.8061 
 120   0.0000       0.216778         5.8988 
 121   0.0000       0.217628         5.9220 
 122   0.0000       0.222512         6.0548 
 123   0.0000       0.225216         6.1284 
 124   0.0000       0.229418         6.2428 
 125   0.0000       0.230600         6.2749 
 126   0.0000       0.233414         6.3515 
 127   0.0000       0.238805         6.4982 
 128   0.0000       0.242262         6.5923 
 129   0.0000       0.247792         6.7427 
 130   0.0000       0.250936         6.8283 
 131   0.0000       0.254860         6.9351 
 132   0.0000       0.264210         7.1895 
 133   0.0000       0.265794         7.2326 
 134   0.0000       0.271111         7.3773 
 135   0.0000       0.278892         7.5890 
 136   0.0000       0.282499         7.6872 
 137   0.0000       0.285498         7.7688 
 138   0.0000       0.288815         7.8590 
 139   0.0000       0.297237         8.0882 
 140   0.0000       0.304917         8.2972 
 141   0.0000       0.306812         8.3488 
 142   0.0000       0.311141         8.4666 
 143   0.0000       0.315469         8.5843 
 144   0.0000       0.321855         8.7581 
 145   0.0000       0.326013         8.8713 
 146   0.0000       0.329635         8.9698 
 147   0.0000       0.332071         9.0361 
 148   0.0000       0.338469         9.2102 
 149   0.0000       0.340015         9.2523 
 150   0.0000       0.344319         9.3694 
 151   0.0000       0.350414         9.5353 
 152   0.0000       0.354811         9.6549 
 153   0.0000       0.355060         9.6617 
 154   0.0000       0.361871         9.8470 
 155   0.0000       0.370020        10.0687 
 156   0.0000       0.378874        10.3097 
 157   0.0000       0.382401        10.4057 
 158   0.0000       0.387659        10.5487 
 159   0.0000       0.389893        10.6095 
 160   0.0000       0.397004        10.8030 
 161   0.0000       0.400359        10.8943 
 162   0.0000       0.405125        11.0240 
 163   0.0000       0.414240        11.2720 
 164   0.0000       0.422275        11.4907 
 165   0.0000       0.424384        11.5481 
 166   0.0000       0.428298        11.6546 
 167   0.0000       0.433008        11.7827 
 168   0.0000       0.437518        11.9055 
 169   0.0000       0.446112        12.1393 
 170   0.0000       0.446764        12.1571 
 171   0.0000       0.454405        12.3650 
 172   0.0000       0.455811        12.4032 
 173   0.0000       0.464208        12.6317 
 174   0.0000       0.466663        12.6986 
 175   0.0000       0.473530        12.8854 
 176   0.0000       0.476061        12.9543 
 177   0.0000       0.485050        13.1989 
 178   0.0000       0.491719        13.3803 
 179   0.0000       0.493492        13.4286 
 180   0.0000       0.503268        13.6946 
 181   0.0000       0.507391        13.8068 
 182   0.0000       0.511000        13.9050 
 183   0.0000       0.517098        14.0709 
 184   0.0000       0.521039        14.1782 
 185   0.0000       0.526994        14.3402 
 186   0.0000       0.529759        14.4155 
 187   0.0000       0.535421        14.5696 
 188   0.0000       0.544122        14.8063 
 189   0.0000       0.548392        14.9225 
 190   0.0000       0.554367        15.0851 
 191   0.0000       0.556727        15.1493 
 192   0.0000       0.561666        15.2837 
 193   0.0000       0.569324        15.4921 
 194   0.0000       0.573996        15.6192 
 195   0.0000       0.578361        15.7380 
 196   0.0000       0.581385        15.8203 
 197   0.0000       0.589268        16.0348 
 198   0.0000       0.590348        16.0642 
 199   0.0000       0.593454        16.1487 
 200   0.0000       0.594871        16.1873 
 201   0.0000       0.601573        16.3696 
 202   0.0000       0.603360        16.4183 
 203   0.0000       0.607544        16.5321 
 204   0.0000       0.611752        16.6466 
 205   0.0000       0.614122        16.7111 
 206   0.0000       0.617803        16.8113 
 207   0.0000       0.620613        16.8877 
 208   0.0000       0.629366        17.1259 
 209   0.0000       0.639085        17.3904 
 210   0.0000       0.640432        17.4271 
 211   0.0000       0.647356        17.6155 
 212   0.0000       0.648651        17.6507 
 213   0.0000       0.658106        17.9080 
 214   0.0000       0.670831        18.2542 
 215   0.0000       0.672806        18.3080 
 216   0.0000       0.677695        18.4410 
 217   0.0000       0.692570        18.8458 
 218   0.0000       0.700288        19.0558 
 219   0.0000       0.707118        19.2417 
 220   0.0000       0.714663        19.4470 
 221   0.0000       0.729681        19.8556 
 222   0.0000       0.740808        20.1584 
 223   0.0000       0.745321        20.2812 
 224   0.0000       0.758421        20.6377 
 225   0.0000       0.772998        21.0343 
 226   0.0000       0.776458        21.1285 
 227   0.0000       0.789905        21.4944 
 228   0.0000       0.792479        21.5644 
 229   0.0000       0.800221        21.7751 
 230   0.0000       0.811265        22.0756 
 231   0.0000       0.824919        22.4472 
 232   0.0000       0.837073        22.7779 
 233   0.0000       0.839137        22.8341 
 234   0.0000       0.850357        23.1394 
 235   0.0000       0.855936        23.2912 
 236   0.0000       0.859812        23.3967 
 237   0.0000       0.876304        23.8454 
 238   0.0000       0.888119        24.1669 
 239   0.0000       0.897862        24.4321 
 240   0.0000       0.907777        24.7019 
 241   0.0000       0.916392        24.9363 
 242   0.0000       0.929113        25.2825 
 243   0.0000       0.941890        25.6301 
 244   0.0000       0.949112        25.8267 
 245   0.0000       0.959025        26.0964 
 246   0.0000       0.970540        26.4097 
 247   0.0000       0.976901        26.5828 
 248   0.0000       0.997203        27.1353 
 249   0.0000       1.002805        27.2877 
 250   0.0000       1.011535        27.5253 
 251   0.0000       1.021534        27.7973 
 252   0.0000       1.029059        28.0021 
 253   0.0000       1.035205        28.1693 
 254   0.0000       1.044494        28.4221 
 255   0.0000       1.058696        28.8086 
 256   0.0000       1.066803        29.0292 
 257   0.0000       1.076392        29.2901 
 258   0.0000       1.078920        29.3589 
 259   0.0000       1.093743        29.7623 
 260   0.0000       1.099666        29.9234 
 261   0.0000       1.102416        29.9983 
 262   0.0000       1.117600        30.4114 
 263   0.0000       1.124516        30.5996 
 264   0.0000       1.128312        30.7029 
 265   0.0000       1.143059        31.1042 
 266   0.0000       1.144881        31.1538 
 267   0.0000       1.153824        31.3971 
 268   0.0000       1.168994        31.8100 
 269   0.0000       1.180429        32.1211 
 270   0.0000       1.188906        32.3518 
 271   0.0000       1.193024        32.4638 
 272   0.0000       1.215923        33.0869 
 273   0.0000       1.227499        33.4019 
 274   0.0000       1.230240        33.4765 
 275   0.0000       1.237255        33.6674 
 276   0.0000       1.242600        33.8129 
 277   0.0000       1.249506        34.0008 
 278   0.0000       1.257418        34.2161 
 279   0.0000       1.265287        34.4302 
 280   0.0000       1.271509        34.5995 
 281   0.0000       1.281699        34.8768 
 282   0.0000       1.284734        34.9594 
 283   0.0000       1.301213        35.4078 
 284   0.0000       1.306063        35.5398 
 285   0.0000       1.309234        35.6261 
 286   0.0000       1.314833        35.7784 
 287   0.0000       1.318033        35.8655 
 288   0.0000       1.325088        36.0575 
 289   0.0000       1.342668        36.5359 
 290   0.0000       1.347278        36.6613 
 291   0.0000       1.364419        37.1277 
 292   0.0000       1.384977        37.6871 
 293   0.0000       1.391028        37.8518 
 294   0.0000       1.393710        37.9248 
 295   0.0000       1.422509        38.7085 
 296   0.0000       1.428573        38.8734 
 297   0.0000       1.435984        39.0751 
 298   0.0000       1.440850        39.2075 
 299   0.0000       1.462931        39.8084 
 300   0.0000       1.471644        40.0455 
 301   0.0000       1.476323        40.1728 
 302   0.0000       1.480891        40.2971 
 303   0.0000       1.486348        40.4456 
 304   0.0000       1.494034        40.6547 
 305   0.0000       1.508936        41.0602 
 306   0.0000       1.517384        41.2901 
 307   0.0000       1.523406        41.4540 
 308   0.0000       1.525824        41.5198 
 309   0.0000       1.543486        42.0004 
 310   0.0000       1.550059        42.1793 
 311   0.0000       1.560912        42.4746 
 312   0.0000       1.575482        42.8711 
 313   0.0000       1.583666        43.0937 
 314   0.0000       1.599257        43.5180 
 315   0.0000       1.609878        43.8070 
 316   0.0000       1.622446        44.1490 
 317   0.0000       1.638480        44.5853 
 318   0.0000       1.649102        44.8744 
 319   0.0000       1.660118        45.1741 
 320   0.0000       1.672073        45.4994 
 321   0.0000       1.677970        45.6599 
 322   0.0000       1.687447        45.9178 
 323   0.0000       1.705309        46.4038 
 324   0.0000       1.720958        46.8296 
 325   0.0000       1.731111        47.1059 
 326   0.0000       1.749896        47.6171 
 327   0.0000       1.760963        47.9182 
 328   0.0000       1.767659        48.1004 
 329   0.0000       1.772894        48.2429 
 330   0.0000       1.776829        48.3500 
 331   0.0000       1.786571        48.6151 
 332   0.0000       1.794629        48.8343 
 333   0.0000       1.820426        49.5363 
 334   0.0000       1.830254        49.8037 
 335   0.0000       1.847416        50.2707 
 336   0.0000       1.866140        50.7803 
 337   0.0000       1.875445        51.0335 
 338   0.0000       1.893230        51.5174 
 339   0.0000       1.914864        52.1061 
 340   0.0000       1.937736        52.7285 
 341   0.0000       1.952802        53.1384 
 342   0.0000       1.960170        53.3389 
 343   0.0000       1.969899        53.6037 
 344   0.0000       2.003900        54.5289 
 345   0.0000       2.017240        54.8919 
 346   0.0000       2.031220        55.2723 
 347   0.0000       2.056158        55.9509 
 348   0.0000       2.075591        56.4797 
 349   0.0000       2.102311        57.2068 
 350   0.0000       2.119824        57.6833 
 351   0.0000       2.143438        58.3259 
 352   0.0000       2.166775        58.9609 
 353   0.0000       2.193497        59.6881 
 354   0.0000       2.231994        60.7356 
 355   0.0000       2.270757        61.7904 
 356   0.0000       2.321926        63.1828 
 357   0.0000       2.325488        63.2798 
 358   0.0000       2.339766        63.6683 
 359   0.0000       2.363409        64.3116 
 360   0.0000       2.376773        64.6753 
 361   0.0000       2.417699        65.7889 
 362   0.0000       2.435498        66.2733 
 363   0.0000       2.456190        66.8363 
 364   0.0000       2.458413        66.8968 
 365   0.0000       2.504573        68.1529 
 366   0.0000       2.545249        69.2597 
 367   0.0000       2.600461        70.7621 
 368   0.0000       2.620183        71.2988 
 369   0.0000       2.632559        71.6356 
 370   0.0000       2.638037        71.7846 
 371   0.0000       2.642559        71.9077 
 372   0.0000       2.652298        72.1727 
 373   0.0000       2.658562        72.3431 
 374   0.0000       2.675139        72.7942 
 375   0.0000       2.683075        73.0102 
 376   0.0000       2.699781        73.4648 
 377   0.0000       2.712414        73.8085 
 378   0.0000       2.725248        74.1578 
 379   0.0000       2.747688        74.7684 
 380   0.0000       2.752464        74.8984 
 381   0.0000       2.760784        75.1248 
 382   0.0000       2.769853        75.3715 
 383   0.0000       2.776666        75.5569 
 384   0.0000       2.783631        75.7465 
 385   0.0000       2.789857        75.9159 
 386   0.0000       2.805291        76.3358 
 387   0.0000       2.806052        76.3566 
 388   0.0000       2.821246        76.7700 
 389   0.0000       2.829599        76.9973 
 390   0.0000       2.839153        77.2573 
 391   0.0000       2.854847        77.6843 
 392   0.0000       2.869665        78.0876 
 393   0.0000       2.876929        78.2852 
 394   0.0000       2.882516        78.4372 
 395   0.0000       2.891930        78.6934 
 396   0.0000       2.912976        79.2661 
 397   0.0000       2.919568        79.4455 
 398   0.0000       2.921267        79.4917 
 399   0.0000       2.928693        79.6938 
 400   0.0000       2.939940        79.9998 
 401   0.0000       2.961627        80.5900 
 402   0.0000       2.979120        81.0660 
 403   0.0000       2.985243        81.2326 
 404   0.0000       3.001851        81.6845 
 405   0.0000       3.007687        81.8433 
 406   0.0000       3.029804        82.4452 
 407   0.0000       3.031399        82.4886 
 408   0.0000       3.048229        82.9465 
 409   0.0000       3.058941        83.2380 
 410   0.0000       3.075453        83.6873 
 411   0.0000       3.082906        83.8902 
 412   0.0000       3.092364        84.1475 
 413   0.0000       3.117390        84.8285 
 414   0.0000       3.119864        84.8958 
 415   0.0000       3.127050        85.0914 
 416   0.0000       3.141564        85.4863 
 417   0.0000       3.147632        85.6514 
 418   0.0000       3.157311        85.9148 
 419   0.0000       3.159068        85.9626 
 420   0.0000       3.172446        86.3266 
 421   0.0000       3.175299        86.4043 
 422   0.0000       3.184753        86.6615 
 423   0.0000       3.208058        87.2957 
 424   0.0000       3.212772        87.4240 
 425   0.0000       3.222028        87.6758 
 426   0.0000       3.224987        87.7563 
 427   0.0000       3.233012        87.9747 
 428   0.0000       3.256852        88.6235 
 429   0.0000       3.262787        88.7850 
 430   0.0000       3.272380        89.0460 
 431   0.0000       3.286826        89.4391 
 432   0.0000       3.294285        89.6420 
 433   0.0000       3.299506        89.7841 
 434   0.0000       3.310182        90.0746 
 435   0.0000       3.323888        90.4476 
 436   0.0000       3.332996        90.6954 
 437   0.0000       3.342918        90.9654 
 438   0.0000       3.360559        91.4455 
 439   0.0000       3.362817        91.5069 
 440   0.0000       3.367679        91.6392 
 441   0.0000       3.380748        91.9948 
 442   0.0000       3.391816        92.2960 
 443   0.0000       3.401229        92.5521 
 444   0.0000       3.404368        92.6376 
 445   0.0000       3.411501        92.8317 
 446   0.0000       3.418387        93.0190 
 447   0.0000       3.443073        93.6908 
 448   0.0000       3.449901        93.8766 
 449   0.0000       3.461130        94.1821 
 450   0.0000       3.464520        94.2744 
 451   0.0000       3.466521        94.3288 
 452   0.0000       3.475414        94.5708 
 453   0.0000       3.493325        95.0582 
 454   0.0000       3.499212        95.2184 
 455   0.0000       3.511135        95.5429 
 456   0.0000       3.520647        95.8017 
 457   0.0000       3.535948        96.2180 
 458   0.0000       3.549503        96.5869 
 459   0.0000       3.557662        96.8089 
 460   0.0000       3.574150        97.2576 
 461   0.0000       3.585056        97.5543 
 462   0.0000       3.588805        97.6564 
 463   0.0000       3.598844        97.9295 
 464   0.0000       3.604585        98.0857 
 465   0.0000       3.637013        98.9682 
 466   0.0000       3.657987        99.5389 
 467   0.0000       3.681626       100.1821 
 468   0.0000       3.686767       100.3220 
 469   0.0000       3.697676       100.6189 
 470   0.0000       3.708435       100.9116 
 471   0.0000       3.717581       101.1605 
 472   0.0000       3.747993       101.9881 
 473   0.0000       3.756802       102.2278 
 474   0.0000       3.761492       102.3554 
 475   0.0000       3.773180       102.6734 
 476   0.0000       3.778345       102.8140 
 477   0.0000       3.787183       103.0545 
 478   0.0000       3.801830       103.4530 
 479   0.0000       3.807372       103.6039 
 480   0.0000       3.813179       103.7619 
 481   0.0000       3.818647       103.9107 
 482   0.0000       3.829344       104.2017 
 483   0.0000       3.859482       105.0219 
 484   0.0000       3.862443       105.1024 
 485   0.0000       3.865800       105.1938 
 486   0.0000       3.903461       106.2186 
 487   0.0000       3.912178       106.4558 
 488   0.0000       3.920089       106.6710 
 489   0.0000       3.935589       107.0928 
 490   0.0000       3.947599       107.4196 
 491   0.0000       3.954135       107.5975 
 492   0.0000       3.964807       107.8879 
 493   0.0000       3.985338       108.4466 
 494   0.0000       3.990018       108.5739 
 495   0.0000       4.006248       109.0156 
 496   0.0000       4.017829       109.3307 
 497   0.0000       4.018119       109.3386 
 498   0.0000       4.024386       109.5091 
 499   0.0000       4.029538       109.6493 
 500   0.0000       4.039305       109.9151 
 501   0.0000       4.046497       110.1108 
 502   0.0000       4.061059       110.5070 
 503   0.0000       4.070570       110.7659 
 504   0.0000       4.077018       110.9413 
 505   0.0000       4.086419       111.1971 
 506   0.0000       4.088219       111.2461 
 507   0.0000       4.096734       111.4778 
 508   0.0000       4.102339       111.6303 
 509   0.0000       4.112665       111.9113 
 510   0.0000       4.120319       112.1196 
 511   0.0000       4.133712       112.4840 
 512   0.0000       4.140109       112.6581 
 513   0.0000       4.145927       112.8164 
 514   0.0000       4.149464       112.9127 
 515   0.0000       4.155310       113.0717 
 516   0.0000       4.158096       113.1475 
 517   0.0000       4.167806       113.4118 
 518   0.0000       4.182686       113.8167 
 519   0.0000       4.188400       113.9722 
 520   0.0000       4.210708       114.5792 
 521   0.0000       4.220512       114.8460 
 522   0.0000       4.231937       115.1569 
 523   0.0000       4.240893       115.4006 
 524   0.0000       4.253683       115.7486 
 525   0.0000       4.270129       116.1961 
 526   0.0000       4.279815       116.4597 
 527   0.0000       4.302158       117.0677 
 528   0.0000       4.314418       117.4013 
 529   0.0000       4.319456       117.5384 
 530   0.0000       4.332093       117.8822 
 531   0.0000       4.343727       118.1988 
 532   0.0000       4.357101       118.5627 
 533   0.0000       4.376690       119.0958 
 534   0.0000       4.398301       119.6839 
 535   0.0000       4.424942       120.4088 
 536   0.0000       4.426610       120.4542 
 537   0.0000       4.446834       121.0045 
 538   0.0000       4.474195       121.7490 
 539   0.0000       4.477864       121.8489 
 540   0.0000       4.499107       122.4269 
 541   0.0000       4.519854       122.9915 
 542   0.0000       4.550141       123.8156 
 543   0.0000       4.555859       123.9712 
 544   0.0000       4.564010       124.1930 
 545   0.0000       4.608494       125.4035 
 546   0.0000       4.634852       126.1207 
 547   0.0000       4.670608       127.0937 
 548   0.0000       4.690877       127.6452 
 549   0.0000       4.719410       128.4217 
 550   0.0000       4.726139       128.6048 
 551   0.0000       4.746784       129.1666 
 552   0.0000       4.759837       129.5218 
 553   0.0000       4.762567       129.5960 
 554   0.0000       4.776772       129.9826 
 555   0.0000       4.794876       130.4752 
 556   0.0000       4.852415       132.0409 
 557   0.0000       4.865865       132.4069 
 558   0.0000       4.874219       132.6342 
 559   0.0000       4.886884       132.9789 
 560   0.0000       4.900702       133.3549 
 561   0.0000       4.928202       134.1032 
 562   0.0000       5.044667       137.2724 
 563   0.0000       5.050851       137.4406 
 564   0.0000       5.109661       139.0410 
 565   0.0000       5.114666       139.1771 
 566   0.0000       5.128482       139.5531 
 567   0.0000       5.133894       139.7003 
 568   0.0000       5.149110       140.1144 
 569   0.0000       5.173672       140.7828 
 570   0.0000       5.192657       141.2994 
 571   0.0000       5.193811       141.3308 
 572   0.0000       5.201350       141.5359 
 573   0.0000       5.234618       142.4412 
 574   0.0000       5.240826       142.6101 
 575   0.0000       5.259178       143.1095 
 576   0.0000       5.282148       143.7345 
 577   0.0000       5.288325       143.9026 
 578   0.0000       5.306620       144.4005 
 579   0.0000       5.315050       144.6299 
 580   0.0000       5.333222       145.1244 
 581   0.0000       5.339399       145.2924 
 582   0.0000       5.356732       145.7641 
 583   0.0000       5.410886       147.2377 
 584   0.0000       5.437580       147.9641 
 585   0.0000       5.457978       148.5191 
 586   0.0000       5.516865       150.1215 
 587   0.0000       5.563176       151.3817 
 588   0.0000       5.614629       152.7818 
 589   0.0000       5.663565       154.1134 
 590   0.0000       5.671894       154.3401 
 591   0.0000       5.682705       154.6343 
 592   0.0000       5.716436       155.5521 
 593   0.0000       5.716930       155.5656 
 594   0.0000       5.750917       156.4904 
 595   0.0000       5.780887       157.3059 
 596   0.0000       5.802502       157.8941 
 597   0.0000       5.861829       159.5085 
 598   0.0000       5.877103       159.9241 
 599   0.0000       5.889168       160.2524 
 600   0.0000       5.902936       160.6271 
 601   0.0000       5.919421       161.0756 
 602   0.0000       6.468130       176.0068 
 603   0.0000       6.470636       176.0750 
 604   0.0000       6.481954       176.3829 
 605   0.0000       7.842640       213.4091 
 606   0.0000       7.864465       214.0030 
 607   0.0000       7.895162       214.8383 
 608   0.0000      16.236320       441.8127 
 609   0.0000      23.029614       626.6677 
 610   0.0000      23.185542       630.9107 
 611   0.0000      23.261623       632.9810 
 612   0.0000      23.584126       641.7567 
 613   0.0000      23.631041       643.0333 
 614   0.0000      23.640739       643.2972 
 615   0.0000      23.750130       646.2739 
 616   0.0000      39.926625      1086.4587 
 617   0.0000      40.578856      1104.2068 
 618   0.0000      43.389523      1180.6889 
 619   0.0000      59.484974      1618.6684 
 620   0.0000     363.510649      9891.6276 

                    ********************************
                    * MULLIKEN POPULATION ANALYSIS *
                    ********************************

-----------------------
MULLIKEN ATOMIC CHARGES
-----------------------
   0 Ir:    0.139540
   1 C :   -0.680794
   2 C :    0.068539
   3 C :    0.066492
   4 C :    0.485864
   5 C :   -0.160951
   6 C :    0.221234
   7 H :    0.178331
   8 H :    0.236486
   9 H :    0.174838
  10 H :   -0.065957
  11 H :   -0.071961
  12 H :   -0.005381
  13 H :   -0.020900
  14 H :   -0.025872
  15 C :   -0.294182
  16 H :    0.116644
  17 H :    0.023183
  18 H :    0.195196
  19 H :    0.124942
  20 P :    0.082358
  21 H :    0.073115
  22 H :    0.071489
  23 H :    0.067744
Sum of atomic charges:    1.0000000

--------------------------------
MULLIKEN REDUCED ORBITAL CHARGES
--------------------------------
  0 Irs       :     2.563221  s :     2.563221
      pz      :     2.167969  p :     6.614929
      px      :     2.253540
      py      :     2.193420
      dz2     :     1.577412  d :     7.606325
      dxz     :     1.404265
      dyz     :     1.820368
      dx2y2   :     1.681766
      dxy     :     1.122514
      f0      :     0.008976  f :     0.073740
      f+1     :     0.012074
      f-1     :     0.007915
      f+2     :     0.010021
      f-2     :     0.009439
      f+3     :     0.011920
      f-3     :     0.013395
      g0      :     0.000233  g :     0.002243
      g+1     :     0.000351
      g-1     :     0.000139
      g+2     :     0.000218
      g-2     :     0.000215
      g+3     :     0.000198
      g-3     :     0.000249
      g+4     :     0.000335
      g-4     :     0.000305
  1 C s       :     3.275924  s :     3.275924
      pz      :     1.019439  p :     3.353573
      px      :     1.187048
      py      :     1.147085
      dz2     :    -0.006985  d :     0.047901
      dxz     :    -0.005493
      dyz     :     0.023086
      dx2y2   :     0.028783
      dxy     :     0.008510
      f0      :     0.000652  f :     0.003397
      f+1     :     0.000666
      f-1     :     0.000372
      f+2     :     0.000582
      f-2     :     0.000516
      f+3     :     0.000212
      f-3     :     0.000396
  2 C s       :     3.392625  s :     3.392625
      pz      :     0.761669  p :     2.458620
      px      :     0.910119
      py      :     0.786833
      dz2     :    -0.023545  d :     0.071662
      dxz     :     0.015799
      dyz     :     0.066978
      dx2y2   :     0.003410
      dxy     :     0.009021
      f0      :     0.001677  f :     0.008554
      f+1     :     0.001349
      f-1     :     0.001406
      f+2     :     0.001376
      f-2     :     0.000728
      f+3     :     0.000895
      f-3     :     0.001122
  3 C s       :     3.407720  s :     3.407720
      pz      :     0.717590  p :     2.452037
      px      :     0.934981
      py      :     0.799467
      dz2     :    -0.009578  d :     0.065089
      dxz     :     0.005840
      dyz     :     0.063328
      dx2y2   :     0.006136
      dxy     :    -0.000637
      f0      :     0.001617  f :     0.008662
      f+1     :     0.001484
      f-1     :     0.001465
      f+2     :     0.001329
      f-2     :     0.000688
      f+3     :     0.001276
      f-3     :     0.000803
  4 C s       :     3.023675  s :     3.023675
      pz      :     0.798532  p :     2.426553
      px      :     0.909937
      py      :     0.718083
      dz2     :     0.033806  d :     0.054764
      dxz     :     0.031395
      dyz     :     0.013816
      dx2y2   :     0.000563
      dxy     :    -0.024816
      f0      :     0.001367  f :     0.009144
      f+1     :     0.001008
      f-1     :     0.001861
      f+2     :     0.000989
      f-2     :     0.001369
      f+3     :     0.001350
      f-3     :     0.001201
  5 C s       :     3.462507  s :     3.462507
      pz      :     0.825849  p :     2.591384
      px      :     0.989472
      py      :     0.776063
      dz2     :     0.045630  d :     0.097870
      dxz     :    -0.000537
      dyz     :    -0.017350
      dx2y2   :     0.046650
      dxy     :     0.023477
      f0      :     0.001432  f :     0.009189
      f+1     :     0.000898
      f-1     :     0.002148
      f+2     :     0.001322
      f-2     :     0.001499
      f+3     :     0.000941
      f-3     :     0.000949
  6 C s       :     3.221652  s :     3.221652
      pz      :     0.776904  p :     2.498365
      px      :     0.974952
      py      :     0.746509
      dz2     :     0.043422  d :     0.050145
      dxz     :     0.016063
      dyz     :     0.005843
      dx2y2   :    -0.003726
      dxy     :    -0.011456
      f0      :     0.001400  f :     0.008604
      f+1     :     0.000710
      f-1     :     0.001899
      f+2     :     0.001186
      f-2     :     0.001165
      f+3     :     0.001072
      f-3     :     0.001172
  7 H s       :     0.753990  s :     0.753990
      pz      :     0.019163  p :     0.066252
      px      :     0.028138
      py      :     0.018951
      dz2     :     0.000404  d :     0.001427
      dxz     :     0.000185
      dyz     :     0.000174
      dx2y2   :     0.000455
      dxy     :     0.000209
  8 H s       :     0.701133  s :     0.701133
      pz      :     0.021662  p :     0.060989
      px      :     0.032879
      py      :     0.006447
      dz2     :     0.000056  d :     0.001392
      dxz     :     0.000575
      dyz     :     0.000125
      dx2y2   :     0.000287
      dxy     :     0.000349
  9 H s       :     0.754136  s :     0.754136
      pz      :     0.017578  p :     0.069628
      px      :     0.020276
      py      :     0.031773
      dz2     :     0.000412  d :     0.001398
      dxz     :     0.000166
      dyz     :     0.000164
      dx2y2   :     0.000203
      dxy     :     0.000453
 10 H s       :     1.007486  s :     1.007486
      pz      :     0.027024  p :     0.057066
      px      :     0.031957
      py      :    -0.001915
      dz2     :     0.000146  d :     0.001404
      dxz     :     0.000494
      dyz     :     0.000716
      dx2y2   :     0.000024
      dxy     :     0.000025
 11 H s       :     1.020410  s :     1.020410
      pz      :     0.002307  p :     0.050175
      px      :     0.031193
      py      :     0.016676
      dz2     :     0.000168  d :     0.001375
      dxz     :     0.000089
      dyz     :     0.000501
      dx2y2   :     0.000253
      dxy     :     0.000364
 12 H s       :     0.955205  s :     0.955205
      pz      :     0.017282  p :     0.048799
      px      :     0.025377
      py      :     0.006140
      dz2     :     0.000529  d :     0.001376
      dxz     :     0.000317
      dyz     :     0.000171
      dx2y2   :     0.000186
      dxy     :     0.000175
 13 H s       :     0.963396  s :     0.963396
      pz      :     0.014743  p :     0.056149
      px      :     0.031052
      py      :     0.010354
      dz2     :     0.000520  d :     0.001355
      dxz     :     0.000252
      dyz     :     0.000185
      dx2y2   :     0.000192
      dxy     :     0.000206
 14 H s       :     0.987475  s :     0.987475
      pz      :     0.004971  p :     0.036972
      px      :     0.014973
      py      :     0.017027
      dz2     :     0.000240  d :     0.001425
      dxz     :     0.000072
      dyz     :     0.000464
      dx2y2   :     0.000197
      dxy     :     0.000452
 15 C s       :     3.113784  s :     3.113784
      pz      :     1.019139  p :     3.119338
      px      :     1.024851
      py      :     1.075348
      dz2     :     0.021002  d :     0.058882
      dxz     :     0.012384
      dyz     :     0.016950
      dx2y2   :    -0.003109
      dxy     :     0.011655
      f0      :     0.000130  f :     0.002178
      f+1     :     0.000460
      f-1     :     0.000564
      f+2     :     0.000159
      f-2     :     0.000211
      f+3     :     0.000514
      f-3     :     0.000139
 16 H s       :     0.738823  s :     0.738823
      pz      :     0.050036  p :     0.141811
      px      :     0.038828
      py      :     0.052947
      dz2     :     0.000502  d :     0.002722
      dxz     :     0.000468
      dyz     :     0.000680
      dx2y2   :     0.000529
      dxy     :     0.000542
 17 H s       :     0.917440  s :     0.917440
      pz      :     0.012250  p :     0.057949
      px      :     0.015072
      py      :     0.030626
      dz2     :     0.000054  d :     0.001428
      dxz     :     0.000046
      dyz     :     0.000573
      dx2y2   :     0.000391
      dxy     :     0.000363
 18 H s       :     0.771241  s :     0.771241
      pz      :     0.015175  p :     0.032288
      px      :    -0.005123
      py      :     0.022236
      dz2     :     0.000334  d :     0.001275
      dxz     :     0.000352
      dyz     :     0.000275
      dx2y2   :     0.000206
      dxy     :     0.000108
 19 H s       :     0.833979  s :     0.833979
      pz      :     0.007599  p :     0.039740
      px      :     0.019099
      py      :     0.013043
      dz2     :     0.000088  d :     0.001338
      dxz     :     0.000516
      dyz     :     0.000030
      dx2y2   :     0.000131
      dxy     :     0.000574
 20 P s       :     5.558268  s :     5.558268
      pz      :     2.936857  p :     9.029447
      px      :     3.072595
      py      :     3.019995
      dz2     :     0.020972  d :     0.308161
      dxz     :     0.121286
      dyz     :     0.048696
      dx2y2   :     0.084720
      dxy     :     0.032487
      f0      :     0.002075  f :     0.021767
      f+1     :     0.003800
      f-1     :     0.001850
      f+2     :     0.003528
      f-2     :     0.003328
      f+3     :     0.004150
      f-3     :     0.003035
 21 H s       :     0.906664  s :     0.906664
      pz      :     0.003144  p :     0.019142
      px      :     0.003256
      py      :     0.012742
      dz2     :     0.000138  d :     0.001079
      dxz     :     0.000085
      dyz     :     0.000295
      dx2y2   :     0.000271
      dxy     :     0.000291
 22 H s       :     0.902104  s :     0.902104
      pz      :     0.012008  p :     0.025283
      px      :     0.009307
      py      :     0.003969
      dz2     :     0.000295  d :     0.001124
      dxz     :     0.000349
      dyz     :     0.000237
      dx2y2   :     0.000105
      dxy     :     0.000137
 23 H s       :     0.908137  s :     0.908137
      pz      :     0.006172  p :     0.023036
      px      :     0.011064
      py      :     0.005800
      dz2     :     0.000268  d :     0.001083
      dxz     :     0.000277
      dyz     :     0.000174
      dx2y2   :     0.000160
      dxy     :     0.000204


                     *******************************
                     * LOEWDIN POPULATION ANALYSIS *
                     *******************************

----------------------
LOEWDIN ATOMIC CHARGES
----------------------
   0 Ir:    0.949776
   1 C :   -0.013828
   2 C :   -0.047177
   3 C :   -0.058773
   4 C :   -0.094276
   5 C :   -0.054808
   6 C :   -0.046110
   7 H :   -0.079654
   8 H :   -0.093170
   9 H :   -0.084630
  10 H :    0.026928
  11 H :    0.020487
  12 H :    0.020635
  13 H :    0.014887
  14 H :    0.017308
  15 C :    0.263463
  16 H :   -0.151780
  17 H :   -0.019043
  18 H :   -0.059866
  19 H :   -0.030619
  20 P :    0.915196
  21 H :   -0.134825
  22 H :   -0.125476
  23 H :   -0.134646

-------------------------------
LOEWDIN REDUCED ORBITAL CHARGES
-------------------------------
  0 Irs       :     2.008213  s :     2.008213
      pz      :     2.125361  p :     6.383293
      px      :     2.147679
      py      :     2.110253
      dz2     :     1.563263  d :     7.484177
      dxz     :     1.370908
      dyz     :     1.726024
      dx2y2   :     1.607016
      dxy     :     1.216965
      f0      :     0.020055  f :     0.169414
      f+1     :     0.027784
      f-1     :     0.018314
      f+2     :     0.021707
      f-2     :     0.021014
      f+3     :     0.027848
      f-3     :     0.032692
      g0      :     0.000511  g :     0.005127
      g+1     :     0.000812
      g-1     :     0.000275
      g+2     :     0.000446
      g-2     :     0.000502
      g+3     :     0.000436
      g-3     :     0.000566
      g+4     :     0.000778
      g-4     :     0.000802
  1 C s       :     2.709017  s :     2.709017
      pz      :     0.892206  p :     2.797139
      px      :     0.941677
      py      :     0.963255
      dz2     :     0.095255  d :     0.483587
      dxz     :     0.084230
      dyz     :     0.149463
      dx2y2   :     0.081705
      dxy     :     0.072933
      f0      :     0.003894  f :     0.024085
      f+1     :     0.003771
      f-1     :     0.002390
      f+2     :     0.004023
      f-2     :     0.003926
      f+3     :     0.002238
      f-3     :     0.003843
  2 C s       :     2.648968  s :     2.648968
      pz      :     0.914010  p :     2.573754
      px      :     0.734309
      py      :     0.925435
      dz2     :     0.162083  d :     0.773587
      dxz     :     0.121315
      dyz     :     0.243300
      dx2y2   :     0.131092
      dxy     :     0.115797
      f0      :     0.011940  f :     0.050868
      f+1     :     0.007681
      f-1     :     0.008585
      f+2     :     0.007575
      f-2     :     0.003684
      f+3     :     0.005177
      f-3     :     0.006226
  3 C s       :     2.649618  s :     2.649618
      pz      :     0.911252  p :     2.583275
      px      :     0.752440
      py      :     0.919583
      dz2     :     0.162623  d :     0.774458
      dxz     :     0.120041
      dyz     :     0.248940
      dx2y2   :     0.124745
      dxy     :     0.118109
      f0      :     0.012020  f :     0.051423
      f+1     :     0.008398
      f-1     :     0.008910
      f+2     :     0.006819
      f-2     :     0.003544
      f+3     :     0.006630
      f-3     :     0.005102
  4 C s       :     2.647395  s :     2.647395
      pz      :     0.903250  p :     2.572504
      px      :     0.757144
      py      :     0.912110
      dz2     :     0.204860  d :     0.821313
      dxz     :     0.155609
      dyz     :     0.204886
      dx2y2   :     0.142259
      dxy     :     0.113699
      f0      :     0.008600  f :     0.053063
      f+1     :     0.005953
      f-1     :     0.012818
      f+2     :     0.005797
      f-2     :     0.008410
      f+3     :     0.006078
      f-3     :     0.005406
  5 C s       :     2.645858  s :     2.645858
      pz      :     0.937725  p :     2.556450
      px      :     0.716498
      py      :     0.902226
      dz2     :     0.209718  d :     0.797983
      dxz     :     0.099421
      dyz     :     0.175586
      dx2y2   :     0.164366
      dxy     :     0.148891
      f0      :     0.006533  f :     0.054517
      f+1     :     0.003381
      f-1     :     0.015049
      f+2     :     0.009275
      f-2     :     0.009969
      f+3     :     0.005231
      f-3     :     0.005079
  6 C s       :     2.646437  s :     2.646437
      pz      :     0.903815  p :     2.588041
      px      :     0.751420
      py      :     0.932806
      dz2     :     0.209390  d :     0.760964
      dxz     :     0.139849
      dyz     :     0.194265
      dx2y2   :     0.123120
      dxy     :     0.094340
      f0      :     0.008745  f :     0.050668
      f+1     :     0.004232
      f-1     :     0.012953
      f+2     :     0.008256
      f-2     :     0.007087
      f+3     :     0.004361
      f-3     :     0.005034
  7 H s       :     0.725187  s :     0.725187
      pz      :     0.107568  p :     0.324278
      px      :     0.103779
      py      :     0.112930
      dz2     :     0.005860  d :     0.030190
      dxz     :     0.004813
      dyz     :     0.006494
      dx2y2   :     0.007307
      dxy     :     0.005716
  8 H s       :     0.722319  s :     0.722319
      pz      :     0.098178  p :     0.340654
      px      :     0.142556
      py      :     0.099920
      dz2     :     0.002748  d :     0.030197
      dxz     :     0.008311
      dyz     :     0.001295
      dx2y2   :     0.008791
      dxy     :     0.009052
  9 H s       :     0.725196  s :     0.725196
      pz      :     0.113172  p :     0.329275
      px      :     0.088119
      py      :     0.127983
      dz2     :     0.005927  d :     0.030159
      dxz     :     0.002698
      dyz     :     0.008644
      dx2y2   :     0.005738
      dxy     :     0.007152
 10 H s       :     0.691018  s :     0.691018
      pz      :     0.126378  p :     0.253004
      px      :     0.067071
      py      :     0.059556
      dz2     :     0.012426  d :     0.029050
      dxz     :     0.007887
      dyz     :     0.008490
      dx2y2   :     0.000138
      dxy     :     0.000109
 11 H s       :     0.698477  s :     0.698477
      pz      :     0.063072  p :     0.251830
      px      :     0.073163
      py      :     0.115596
      dz2     :     0.003668  d :     0.029205
      dxz     :     0.001268
      dyz     :     0.008049
      dx2y2   :     0.008375
      dxy     :     0.007846
 12 H s       :     0.698574  s :     0.698574
      pz      :     0.103789  p :     0.251931
      px      :     0.067696
      py      :     0.080445
      dz2     :     0.008810  d :     0.028860
      dxz     :     0.005413
      dyz     :     0.009084
      dx2y2   :     0.002879
      dxy     :     0.002674
 13 H s       :     0.698991  s :     0.698991
      pz      :     0.100832  p :     0.257135
      px      :     0.075084
      py      :     0.081219
      dz2     :     0.008364  d :     0.028987
      dxz     :     0.005553
      dyz     :     0.008745
      dx2y2   :     0.003072
      dxy     :     0.003254
 14 H s       :     0.698877  s :     0.698877
      pz      :     0.066375  p :     0.254576
      px      :     0.070761
      py      :     0.117440
      dz2     :     0.004016  d :     0.029239
      dxz     :     0.001115
      dyz     :     0.008624
      dx2y2   :     0.007836
      dxy     :     0.007648
 15 C s       :     2.650115  s :     2.650115
      pz      :     0.891218  p :     2.717149
      px      :     0.916741
      py      :     0.909190
      dz2     :     0.077580  d :     0.348099
      dxz     :     0.049536
      dyz     :     0.061132
      dx2y2   :     0.105267
      dxy     :     0.054583
      f0      :     0.001474  f :     0.021174
      f+1     :     0.004777
      f-1     :     0.004858
      f+2     :     0.001000
      f-2     :     0.003023
      f+3     :     0.004547
      f-3     :     0.001496
 16 H s       :     0.644186  s :     0.644186
      pz      :     0.171951  p :     0.476613
      px      :     0.138943
      py      :     0.165720
      dz2     :     0.007479  d :     0.030980
      dxz     :     0.006868
      dyz     :     0.007807
      dx2y2   :     0.004630
      dxy     :     0.004195
 17 H s       :     0.701134  s :     0.701134
      pz      :     0.076342  p :     0.288634
      px      :     0.083305
      py      :     0.128987
      dz2     :     0.002751  d :     0.029275
      dxz     :     0.000950
      dyz     :     0.008632
      dx2y2   :     0.008618
      dxy     :     0.008324
 18 H s       :     0.701215  s :     0.701215
      pz      :     0.120977  p :     0.328969
      px      :     0.092065
      py      :     0.115927
      dz2     :     0.008859  d :     0.029682
      dxz     :     0.007324
      dyz     :     0.008481
      dx2y2   :     0.002902
      dxy     :     0.002116
 19 H s       :     0.706496  s :     0.706496
      pz      :     0.077869  p :     0.294820
      px      :     0.133571
      py      :     0.083380
      dz2     :     0.003117  d :     0.029303
      dxz     :     0.008990
      dyz     :     0.000362
      dx2y2   :     0.007842
      dxy     :     0.008992
 20 P s       :     4.739467  s :     4.739467
      pz      :     2.827323  p :     8.586286
      px      :     2.896739
      py      :     2.862224
      dz2     :     0.059291  d :     0.696414
      dxz     :     0.242476
      dyz     :     0.118737
      dx2y2   :     0.184238
      dxy     :     0.091673
      f0      :     0.006022  f :     0.062638
      f+1     :     0.011086
      f-1     :     0.005384
      f+2     :     0.010230
      f-2     :     0.009375
      f+3     :     0.010953
      f-3     :     0.009588
 21 H s       :     0.844956  s :     0.844956
      pz      :     0.071247  p :     0.277778
      px      :     0.066731
      py      :     0.139800
      dz2     :     0.001449  d :     0.012091
      dxz     :     0.000581
      dyz     :     0.003574
      dx2y2   :     0.003910
      dxy     :     0.002578
 22 H s       :     0.830944  s :     0.830944
      pz      :     0.116104  p :     0.282285
      px      :     0.100417
      py      :     0.065764
      dz2     :     0.002637  d :     0.012246
      dxz     :     0.004641
      dyz     :     0.002135
      dx2y2   :     0.001366
      dxy     :     0.001468
 23 H s       :     0.841842  s :     0.841842
      pz      :     0.099615  p :     0.280689
      px      :     0.106520
      py      :     0.074554
      dz2     :     0.002261  d :     0.012115
      dxz     :     0.004260
      dyz     :     0.001777
      dx2y2   :     0.001992
      dxy     :     0.001825


                      *****************************
                      * MAYER POPULATION ANALYSIS *
                      *****************************

  NA   - Mulliken gross atomic population
  ZA   - Total nuclear charge
  QA   - Mulliken gross atomic charge
  VA   - Mayer's total valence
  BVA  - Mayer's bonded valence
  FA   - Mayer's free valence

  ATOM       NA         ZA         QA         VA         BVA        FA
  0 Ir    16.8605    17.0000     0.1395     5.0808     5.0808     0.0000
  1 C      6.6808     6.0000    -0.6808     3.8039     3.8039    -0.0000
  2 C      5.9315     6.0000     0.0685     3.3539     3.3539    -0.0000
  3 C      5.9335     6.0000     0.0665     3.3655     3.3655     0.0000
  4 C      5.5141     6.0000     0.4859     2.8170     2.8170    -0.0000
  5 C      6.1610     6.0000    -0.1610     3.6202     3.6202     0.0000
  6 C      5.7788     6.0000     0.2212     3.1109     3.1109     0.0000
  7 H      0.8217     1.0000     0.1783     1.0959     1.0959    -0.0000
  8 H      0.7635     1.0000     0.2365     1.0998     1.0998     0.0000
  9 H      0.8252     1.0000     0.1748     1.1126     1.1126    -0.0000
 10 H      1.0660     1.0000    -0.0660     1.0876     1.0876     0.0000
 11 H      1.0720     1.0000    -0.0720     1.0911     1.0911     0.0000
 12 H      1.0054     1.0000    -0.0054     1.0675     1.0675    -0.0000
 13 H      1.0209     1.0000    -0.0209     1.0905     1.0905     0.0000
 14 H      1.0259     1.0000    -0.0259     1.0458     1.0458    -0.0000
 15 C      6.2942     6.0000    -0.2942     4.1795     4.1795     0.0000
 16 H      0.8834     1.0000     0.1166     1.1050     1.1050    -0.0000
 17 H      0.9768     1.0000     0.0232     1.0981     1.0981     0.0000
 18 H      0.8048     1.0000     0.1952     0.9484     0.9484     0.0000
 19 H      0.8751     1.0000     0.1249     0.9969     0.9969     0.0000
 20 P     14.9176    15.0000     0.0824     3.9660     3.9660    -0.0000
 21 H      0.9269     1.0000     0.0731     0.9593     0.9593     0.0000
 22 H      0.9285     1.0000     0.0715     0.9734     0.9734    -0.0000
 23 H      0.9323     1.0000     0.0677     0.9739     0.9739    -0.0000

  Mayer bond orders larger than 0.100000
B(  0-Ir,  1-C ) :   0.6465 B(  0-Ir,  2-C ) :   0.4691 B(  0-Ir,  3-C ) :   0.4281 
B(  0-Ir,  4-C ) :   0.5569 B(  0-Ir,  5-C ) :   0.5963 B(  0-Ir,  6-C ) :   0.4377 
B(  0-Ir, 15-C ) :   0.2865 B(  0-Ir, 16-H ) :   0.1523 B(  0-Ir, 20-P ) :   1.0287 
B(  1-C ,  5-C ) :   0.1563 B(  1-C ,  7-H ) :   0.9670 B(  1-C ,  8-H ) :   0.9231 
B(  1-C ,  9-H ) :   0.9793 B(  2-C ,  3-C ) :   1.1146 B(  2-C ,  4-C ) :  -0.1356 
B(  2-C ,  6-C ) :   0.8645 B(  2-C , 12-H ) :   1.0612 B(  3-C ,  4-C ) :   0.8745 
B(  3-C ,  6-C ) :  -0.1536 B(  3-C , 13-H ) :   1.1030 B(  4-C ,  5-C ) :   0.8253 
B(  4-C ,  6-C ) :  -0.1622 B(  4-C , 14-H ) :   0.9488 B(  5-C ,  6-C ) :   1.0975 
B(  5-C , 10-H ) :   1.0674 B(  6-C , 11-H ) :   1.0104 B( 15-C , 16-H ) :   0.8843 
B( 15-C , 17-H ) :   0.9454 B( 15-C , 18-H ) :   0.9286 B( 15-C , 19-H ) :   0.9414 
B( 16-H , 17-H ) :   0.1084 B( 20-P , 21-H ) :   0.9256 B( 20-P , 22-H ) :   0.9233 
B( 20-P , 23-H ) :   0.9233 

-------
TIMINGS
-------

Total SCF time: 0 days 0 hours 0 min 18 sec 

Total time                  ....      18.879 sec
Sum of individual times     ....      18.000 sec  ( 95.3%)

Fock matrix formation       ....      13.265 sec  ( 70.3%)
  Split-RI-J                ....       4.196 sec  ( 31.6% of F)
  XC integration            ....       8.667 sec  ( 65.3% of F)
    Basis function eval.    ....       0.782 sec  (  9.0% of XC)
    Density eval.           ....       2.678 sec  ( 30.9% of XC)
    XC-Functional eval.     ....       0.116 sec  (  1.3% of XC)
    XC-Potential eval.      ....       4.285 sec  ( 49.4% of XC)
Diagonalization             ....       1.538 sec  (  8.1%)
Density matrix formation    ....       0.096 sec  (  0.5%)
Population analysis         ....       0.077 sec  (  0.4%)
Initial guess               ....       1.592 sec  (  8.4%)
Orbital Transformation      ....       0.000 sec  (  0.0%)
Orbital Orthonormalization  ....       0.000 sec  (  0.0%)
DIIS solution               ....       0.962 sec  (  5.1%)
Grid generation             ....       0.471 sec  (  2.5%)


-------------------------------------------------------------------------------
                          DFT DISPERSION CORRECTION                            
                                                                               
                              DFTD3 V3.1  Rev 1                                
                          USING Becke-Johnson damping                          
-------------------------------------------------------------------------------
The TPSS functional is recognized
Active option DFTDOPT                   ...         4   

molecular C6(AA) [au] = 7344.858850 


            DFT-D V3
 parameters
 s6 scaling factor         :     1.0000 
 a1 scaling factor         :     0.4535 
 s8 scaling factor         :     1.9435 
 a2 scaling factor         :     4.4752 
 ad hoc parameters k1-k3   :    16.0000     1.3333    -4.0000 

 Edisp/kcal,au: -24.469354323725  -0.038994394069 
 E6   /kcal   : -11.248711217 
 E8   /kcal   : -13.220643107 
 % E8         :  54.029390934 

-------------------------   ----------------
Dispersion correction           -0.038994394
-------------------------   ----------------


-------------------------   --------------------
FINAL SINGLE POINT ENERGY      -721.525916825398
-------------------------   --------------------


                            ***************************************
                            *     ORCA property calculations      *
                            ***************************************

                                    ---------------------
                                    Active property flags
                                    ---------------------
   (+) Dipole Moment


------------------------------------------------------------------------------
                       ORCA ELECTRIC PROPERTIES CALCULATION
------------------------------------------------------------------------------

Dipole Moment Calculation                       ... on
Quadrupole Moment Calculation                   ... off
Polarizability Calculation                      ... off
GBWName                                         ... TMB31_C1.gbw
Electron density file                           ... TMB31_C1.scfp
The origin for moment calculation is the CENTER OF MASS  = ( 0.021896, -0.007590  0.007804)

-------------
DIPOLE MOMENT
-------------
                                X             Y             Z
Electronic contribution:     -2.89175      10.06539       7.33766
Nuclear contribution   :      2.66689     -10.24599      -8.00272
                        -----------------------------------------
Total Dipole Moment    :     -0.22487      -0.18060      -0.66506
                        -----------------------------------------
Magnitude (a.u.)       :      0.72490
Magnitude (Debye)      :      1.84255



--------------------
Rotational spectrum 
--------------------
 
Rotational constants in cm-1:     0.050543     0.032436     0.029954 
Rotational constants in MHz :  1515.232111   972.406510   898.012536 

 Dipole components along the rotational axes: 
x,y,z [a.u.] :    -0.229431    -0.218179    -0.652105 
x,y,z [Debye]:    -0.583167    -0.554566    -1.657518 

 

Timings for individual modules:

Sum of individual times         ...       22.163 sec (=   0.369 min)
GTO integral calculation        ...        2.923 sec (=   0.049 min)  13.2 %
SCF iterations                  ...       19.240 sec (=   0.321 min)  86.8 %
                             ****ORCA TERMINATED NORMALLY****
TOTAL RUN TIME: 0 days 0 hours 0 minutes 22 seconds 722 msec
