
                                 *****************
                                 * O   R   C   A *
                                 *****************

           --- An Ab Initio, DFT and Semiempirical electronic structure package ---

                  #######################################################
                  #                        -***-                        #
                  #          Department of theory and spectroscopy      #
                  #               Directorship: Frank Neese             #
                  #        Max Planck Institute fuer Kohlenforschung    #
                  #                Kaiser Wilhelm Platz 1               #
                  #                 D-45470 Muelheim/Ruhr               #
                  #                      Germany                        #
                  #                                                     #
                  #                  All rights reserved                #
                  #                        -***-                        #
                  #######################################################


                         Program Version 4.2.0 -  RELEASE  -


 With contributions from (in alphabetic order):
   Daniel Aravena         : Magnetic Suceptibility
   Michael Atanasov       : Ab Initio Ligand Field Theory (pilot matlab implementation)
   Alexander A. Auer      : GIAO ZORA, VPT2
   Ute Becker             : Parallelization
   Giovanni Bistoni       : ED, misc. LED, open-shell LED, HFLED
   Martin Brehm           : Molecular dynamics
   Dmytro Bykov           : SCF Hessian
   Vijay G. Chilkuri      : MRCI spin determinant printing, contributions to CSF-ICE
   Dipayan Datta          : RHF DLPNO-CCSD density
   Achintya Kumar Dutta   : EOM-CC, STEOM-CC
   Dmitry Ganyushin       : Spin-Orbit,Spin-Spin,Magnetic field MRCI
   Miquel Garcia          : C-PCM Hessian, Gaussian charge scheme
   Yang Guo               : DLPNO-NEVPT2, CIM, IAO-localization
   Andreas Hansen         : Spin unrestricted coupled pair/coupled cluster methods
   Benjamin Helmich-Paris : CASSCF linear response (MC-RPA)
   Lee Huntington         : MR-EOM, pCC
   Robert Izsak           : Overlap fitted RIJCOSX, COSX-SCS-MP3, EOM
   Christian Kollmar      : KDIIS, OOCD, Brueckner-CCSD(T), CCSD density
   Simone Kossmann        : Meta GGA functionals, TD-DFT gradient, OOMP2, MP2 Hessian
   Martin Krupicka        : AUTO-CI
   Lucas Lang             : DCDCAS
   Dagmar Lenk            : GEPOL surface, SMD
   Dimitrios Liakos       : Extrapolation schemes; Compound Job, initial MDCI parallelization
   Dimitrios Manganas     : Further ROCIS development; embedding schemes
   Dimitrios Pantazis     : SARC Basis sets
   Taras Petrenko         : DFT Hessian,TD-DFT gradient, ASA, ECA, R-Raman, ABS, FL, XAS/XES, NRVS
   Peter Pinski           : DLPNO-MP2, DLPNO-MP2 Gradient
   Christoph Reimann      : Effective Core Potentials
   Marius Retegan         : Local ZFS, SOC
   Christoph Riplinger    : Optimizer, TS searches, QM/MM, DLPNO-CCSD(T), (RO)-DLPNO pert. Triples
   Tobias Risthaus        : Range-separated hybrids, TD-DFT gradient, RPA, STAB
   Michael Roemelt        : Original ROCIS implementation
   Masaaki Saitow         : Open-shell DLPNO-CCSD energy and density
   Barbara Sandhoefer     : DKH picture change effects
   Avijit Sen             : IP-ROCIS
   Kantharuban Sivalingam : CASSCF convergence, NEVPT2, FIC-MRCI
   Bernardo de Souza      : ESD, SOC TD-DFT
   Georgi Stoychev        : AutoAux, RI-MP2 NMR
   Willem Van den Heuvel  : Paramagnetic NMR
   Boris Wezisla          : Elementary symmetry handling
   Frank Wennmohs         : Technical directorship


 We gratefully acknowledge several colleagues who have allowed us to
 interface, adapt or use parts of their codes:
   Stefan Grimme, W. Hujo, H. Kruse,             : VdW corrections, initial TS optimization,
                  C. Bannwarth                     DFT functionals, gCP, sTDA/sTD-DF
   Ed Valeev, F. Pavosevic, A. Kumar             : LibInt (2-el integral package), F12 methods
   Garnet Chan, S. Sharma, J. Yang, R. Olivares  : DMRG
   Ulf Ekstrom                                   : XCFun DFT Library
   Mihaly Kallay                                 : mrcc  (arbitrary order and MRCC methods)
   Andreas Klamt, Michael Diedenhofen            : otool_cosmo (COSMO solvation model)
   Jiri Pittner, Ondrej Demel                    : Mk-CCSD
   Frank Weinhold                                : gennbo (NPA and NBO analysis)
   Christopher J. Cramer and Donald G. Truhlar   : smd solvation model
   Lars Goerigk                                  : TD-DFT with DH, B97 family of functionals
   V. Asgeirsson, H. Jonsson                     : NEB implementation
   FAccTs GmbH                                   : IRC, NEB, NEB-TS, Multilevel, MM, QM/MM, CI optimization
   S Lehtola, MJT Oliveira, MAL Marques          : LibXC Library


 Your calculation uses the libint2 library for the computation of 2-el integrals
 For citations please refer to: http://libint.valeyev.net

 Your ORCA version has been built with support for libXC version: 4.2.3
 For citations please refer to: https://tddft.org/programs/libxc/

 This ORCA versions uses:
   CBLAS   interface :  Fast vector & matrix operations
   LAPACKE interface :  Fast linear algebra routines
   SCALAPACK package :  Parallel linear algebra routines


Your calculation utilizes the atom-pairwise dispersion correction
with the Becke-Johnson damping scheme (D3BJ)
Cite in your paper:
S.Grimme, S.Ehrlich, L.Goerigk, J Comput Chem, (2011), 32, 1456–1465 
S.Grimme, J.Antony, S.Ehrlich and H.Krieg, J.Chem.Phys., 132, (2010), 154104 
   

----- Orbital basis set information -----
Your calculation utilizes the basis: def2-TZVPPD
   F. Weigend and R. Ahlrichs, Phys. Chem. Chem. Phys. 7, 3297 (2005).
   D. Rappoport and F. Furche, J. Chem. Phys. 133 134105 (2010).

----- AuxJ basis set information -----
Your calculation utilizes the auxiliary basis: def2/J
   F. Weigend, Phys. Chem. Chem. Phys. 8, 1057 (2006).

================================================================================
                                        WARNINGS
                       Please study these warnings very carefully!
================================================================================


WARNING: your system is open-shell and RHF/RKS was chosen
  ===> : WILL SWITCH to UHF/UKS


INFO   : the flag for use of LIBINT has been found!

================================================================================
                                       INPUT FILE
================================================================================
NAME = TMD06_Br.in
|  1> #
|  2> # TMD06_Br TPSS-D3BJ/Def2-TZVPPD
|  3> #
|  4> ! tpss d3bj def2-tzvppd def2/j grid4 nofinalgrid
|  5> 
|  6> *xyz 0 2
|  7> Br       0.000000    0.000000    0.000000 
|  8> *
|  9> 
| 10> %maxcore 5000
| 11> 
| 12> %pal
| 13> nprocs = 24
| 14> end
| 15> 
| 16> 
| 17>                          ****END OF INPUT****
================================================================================

                       ****************************
                       * Single Point Calculation *
                       ****************************

---------------------------------
CARTESIAN COORDINATES (ANGSTROEM)
---------------------------------
  Br     0.000000    0.000000    0.000000

----------------------------
CARTESIAN COORDINATES (A.U.)
----------------------------
  NO LB      ZA    FRAG     MASS         X           Y           Z
   0 Br   35.0000    0    79.900    0.000000    0.000000    0.000000

--------------------------------
INTERNAL COORDINATES (ANGSTROEM)
--------------------------------
 Br     0   0   0     0.000000000000     0.00000000     0.00000000

---------------------------
INTERNAL COORDINATES (A.U.)
---------------------------
 Br     0   0   0     0.000000000000     0.00000000     0.00000000

---------------------
BASIS SET INFORMATION
---------------------
There are 1 groups of distinct atoms

 Group   1 Type Br  : 18s14p9d1f contracted to 7s6p5d1f pattern {8421111/641111/51111/1}

Atom   0Br   basis set group =>   1
---------------------------------
AUXILIARY/J BASIS SET INFORMATION
---------------------------------
There are 1 groups of distinct atoms

 Group   1 Type Br  : 19s5p5d3f1g contracted to 8s4p3d2f1g pattern {121111111/2111/311/21/1}

Atom   0Br   basis set group =>   1


           ************************************************************
           *        Program running with 24 parallel MPI-processes    *
           *              working on a common directory               *
           ************************************************************
------------------------------------------------------------------------------
                           ORCA GTO INTEGRAL CALCULATION
                           -- RI-GTO INTEGRALS CHOSEN --
------------------------------------------------------------------------------

                         BASIS SET STATISTICS AND STARTUP INFO

Gaussian basis set:
 # of primitive gaussian shells          ...   42
 # of primitive gaussian functions       ...  112
 # of contracted shells                  ...   19
 # of contracted basis functions         ...   57
 Highest angular momentum                ...    3
 Maximum contraction depth               ...    8
Auxiliary gaussian basis set:
 # of primitive gaussian shells          ...   33
 # of primitive gaussian functions       ...   89
 # of contracted shells                  ...   18
 # of contracted aux-basis functions     ...   58
 Highest angular momentum                ...    4
 Maximum contraction depth               ...   12
Ratio of auxiliary to basis functions    ...  1.02
Integral package used                  ... LIBINT
 One Electron integrals                  ... done
 Ordering auxiliary basis shells         ... done
 Integral threshhold             Thresh  ...  1.000e-10
 Primitive cut-off               TCut    ...  1.000e-11
 Pre-screening matrix                    ... done
 Shell pair data                         ... 
 Ordering of the shell pairs             ... done (   0.000 sec) 190 of 190 pairs
 Determination of significant pairs      ... done (   0.000 sec)
 Creation of shell pair data             ... done (   0.000 sec)
 Storage of shell pair data              ... done (   0.013 sec)
 Shell pair data done in (   0.013 sec)
 Computing two index integrals           ... done
 Cholesky decomposition of the V-matrix  ... done


Timings:
 Total evaluation time                   ...   0.172 sec (  0.003 min)
 One electron matrix time                ...   0.025 sec (  0.000 min) = 14.7%
 Schwartz matrix evaluation time         ...   0.113 sec (  0.002 min) = 65.8%
 Two index repulsion integral time       ...   0.000 sec (  0.000 min) =  0.2%
 Cholesky decomposition of V             ...   0.001 sec (  0.000 min) =  0.3%
 Three index repulsion integral time     ...   0.000 sec (  0.000 min) =  0.0%



           ************************************************************
           *        Program running with 24 parallel MPI-processes    *
           *              working on a common directory               *
           ************************************************************
-------------------------------------------------------------------------------
                                 ORCA SCF
-------------------------------------------------------------------------------

------------
SCF SETTINGS
------------
Hamiltonian:
 Density Functional     Method          .... DFT(GTOs)
 Exchange Functional    Exchange        .... TPSS
 Correlation Functional Correlation     .... TPSS
 LDA part of GGA corr.  LDAOpt          .... PW91-LDA
 Gradients option       PostSCFGGA      .... off
   Density functional embedding theory  .... OFF
   NL short-range parameter             ....  5.000000
 RI-approximation to the Coulomb term is turned on
   Number of auxiliary basis functions  .... 58


General Settings:
 Integral files         IntName         .... TMD06_Br
 Hartree-Fock type      HFTyp           .... UHF
 Total Charge           Charge          ....    0
 Multiplicity           Mult            ....    2
 Number of Electrons    NEL             ....   35
 Basis Dimension        Dim             ....   57
 Nuclear Repulsion      ENuc            ....      0.0000000000 Eh

Convergence Acceleration:
 DIIS                   CNVDIIS         .... on
   Start iteration      DIISMaxIt       ....    12
   Startup error        DIISStart       ....  0.200000
   # of expansion vecs  DIISMaxEq       ....     5
   Bias factor          DIISBfac        ....   1.050
   Max. coefficient     DIISMaxC        ....  10.000
 Newton-Raphson         CNVNR           .... off
 SOSCF                  CNVSOSCF        .... off
 Level Shifting         CNVShift        .... on
   Level shift para.    LevelShift      ....    0.2500
   Turn off err/grad.   ShiftErr        ....    0.0010
 Zerner damping         CNVZerner       .... off
 Static damping         CNVDamp         .... on
   Fraction old density DampFac         ....    0.7000
   Max. Damping (<1)    DampMax         ....    0.9800
   Min. Damping (>=0)   DampMin         ....    0.0000
   Turn off err/grad.   DampErr         ....    0.1000
 Fernandez-Rico         CNVRico         .... off

SCF Procedure:
 Maximum # iterations   MaxIter         ....   125
 SCF integral mode      SCFMode         .... Direct
   Integral package                     .... LIBINT
 Reset frequency        DirectResetFreq ....    20
 Integral Threshold     Thresh          ....  1.000e-10 Eh
 Primitive CutOff       TCut            ....  1.000e-11 Eh

Convergence Tolerance:
 Convergence Check Mode ConvCheckMode   .... Total+1el-Energy
 Convergence forced     ConvForced      .... 0
 Energy Change          TolE            ....  1.000e-06 Eh
 1-El. energy change                    ....  1.000e-03 Eh
 DIIS Error             TolErr          ....  1.000e-06


Diagonalization of the overlap matrix:
Smallest eigenvalue                        ... 1.948e-02
Time for diagonalization                   ...    0.002 sec
Threshold for overlap eigenvalues          ... 1.000e-08
Number of eigenvalues below threshold      ... 0
Time for construction of square roots      ...    0.001 sec
Total time needed                          ...    0.003 sec

-------------------
DFT GRID GENERATION
-------------------

General Integration Accuracy     IntAcc      ...  4.670
Radial Grid Type                 RadialGrid  ... Gauss-Chebyshev
Angular Grid (max. acc.)         AngularGrid ... Lebedev-302
Angular grid pruning method      GridPruning ... 3 (G Style)
Weight generation scheme         WeightScheme... Becke
Basis function cutoff            BFCut       ...    1.0000e-10
Integration weight cutoff        WCut        ...    1.0000e-14
Grids for H and He will be reduced by one unit

# of grid points (after initial pruning)     ...   9616 (   0.0 sec)
# of grid points (after weights+screening)   ...   9616 (   0.0 sec)
Grid point division into batches done        ...    0.1 sec
Reduced shell lists constructed in    0.1 sec

Total number of grid points                  ...     9616
Total number of batches                      ...      151
Average number of points per batch           ...       63
Average number of grid points per atom       ...     9616
Average number of shells per batch           ...     5.25 (27.63%)
Average number of basis functions per batch  ...    15.75 (27.63%)
Average number of large shells per batch     ...     3.50 (66.67%)
Average number of large basis fcns per batch ...    10.50 (66.67%)
Maximum spatial batch extension              ...  20.96, 16.71, 16.71 au
Average spatial batch extension              ...   0.72,  0.66,  0.65 au

Time for grid setup =    0.120 sec

------------------------------
INITIAL GUESS: MODEL POTENTIAL
------------------------------
Loading Hartree-Fock densities                     ... done
Calculating cut-offs                               ... done
Setting up the integral package                    ... done
Initializing the effective Hamiltonian             ... done
Starting the Coulomb interaction                   ... done (   0.0 sec)
Reading the grid                                   ... done
Mapping shells                                     ... done
Starting the XC term evaluation                    ... done (   0.0 sec)
  promolecular density results
     # of electrons  =     34.999995890
     EX              =    -89.238293731
     EC              =     -1.701081602
     EX+EC           =    -90.939375332
Transforming the Hamiltonian                       ... done (   0.0 sec)
Diagonalizing the Hamiltonian                      ... done (   0.0 sec)
Back transforming the eigenvectors                 ... done (   0.0 sec)
Now organizing SCF variables                       ... done
                      ------------------
                      INITIAL GUESS DONE (   0.2 sec)
                      ------------------
--------------
SCF ITERATIONS
--------------
ITER       Energy         Delta-E        Max-DP      RMS-DP      [F,P]     Damp
               ***  Starting incremental Fock matrix formation  ***
  0  -2574.0125123157   0.000000000000 0.00626200  0.00027374  0.0534685 0.7000
  1  -2574.0140894762  -0.001577160448 0.00671532  0.00020959  0.0270850 0.7000
                               ***Turning on DIIS***
  2  -2574.0151070944  -0.001017618233 0.01847117  0.00051473  0.0156345 0.0000
  3  -2574.0173693468  -0.002262252414 0.00234106  0.00010085  0.0092234 0.0000
  4  -2574.0174300610  -0.000060714184 0.00076087  0.00003022  0.0025152 0.0000
  5  -2574.0174381848  -0.000008123813 0.00055072  0.00001446  0.0002526 0.0000
                 **** Energy Check signals convergence ****

               *****************************************************
               *                     SUCCESS                       *
               *           SCF CONVERGED AFTER   6 CYCLES          *
               *****************************************************


----------------
TOTAL SCF ENERGY
----------------

Total Energy       :        -2574.01743893 Eh          -70042.57541 eV

Components:
Nuclear Repulsion  :            0.00000000 Eh               0.00000 eV
Electronic Energy  :        -2574.01743893 Eh          -70042.57541 eV
One Electron Energy:        -3580.68740634 Eh          -97435.45785 eV
Two Electron Energy:         1006.66996741 Eh           27392.88244 eV

Virial components:
Potential Energy   :        -5144.04645729 Eh         -139976.62038 eV
Kinetic Energy     :         2570.02901836 Eh           69934.04497 eV
Virial Ratio       :            2.00155190


DFT components:
N(Alpha)           :       18.000000198461 electrons
N(Beta)            :       17.000000182896 electrons
N(Total)           :       35.000000381357 electrons
E(X)               :      -89.463064432508 Eh       
E(C)               :       -1.699987219222 Eh       
E(XC)              :      -91.163051651730 Eh       
DFET-embed. en.    :        0.000000000000 Eh       

---------------
SCF CONVERGENCE
---------------

  Last Energy change         ...   -7.4557e-07  Tolerance :   1.0000e-06
  Last MAX-Density change    ...    3.7102e-05  Tolerance :   1.0000e-05
  Last RMS-Density change    ...    1.2035e-06  Tolerance :   1.0000e-06
  Last DIIS Error            ...    2.9863e-05  Tolerance :   1.0000e-06

             **** THE GBW FILE WAS UPDATED (TMD06_Br.gbw) ****
             **** DENSITY FILE WAS UPDATED (TMD06_Br.scfp) ****
             **** ENERGY FILE WAS UPDATED (TMD06_Br.en.tmp) ****
----------------------
UHF SPIN CONTAMINATION
----------------------

Warning: in a DFT calculation there is little theoretical justification to 
         calculate <S**2> as in Hartree-Fock theory. We will do it anyways
         but you should keep in mind that the values have only limited relevance

Expectation value of <S**2>     :     0.752680
Ideal value S*(S+1) for S=0.5   :     0.750000
Deviation                       :     0.002680

             **** THE GBW FILE WAS UPDATED (TMD06_Br.gbw) ****
             **** DENSITY FILE WAS UPDATED (TMD06_Br.scfp) ****
----------------
ORBITAL ENERGIES
----------------
                 SPIN UP ORBITALS
  NO   OCC          E(Eh)            E(eV) 
   0   1.0000    -481.767833    -13109.5692 
   1   1.0000     -61.983966     -1686.6695 
   2   1.0000     -55.819780     -1518.9334 
   3   1.0000     -55.814453     -1518.7885 
   4   1.0000     -55.814453     -1518.7885 
   5   1.0000      -8.514837      -231.7005 
   6   1.0000      -6.366633      -173.2449 
   7   1.0000      -6.345124      -172.6596 
   8   1.0000      -6.345124      -172.6596 
   9   1.0000      -2.531560       -68.8872 
  10   1.0000      -2.526139       -68.7397 
  11   1.0000      -2.526139       -68.7397 
  12   1.0000      -2.509855       -68.2966 
  13   1.0000      -2.509855       -68.2966 
  14   1.0000      -0.739745       -20.1295 
  15   1.0000      -0.340956        -9.2779 
  16   1.0000      -0.292228        -7.9519 
  17   1.0000      -0.292228        -7.9519 
  18   0.0000       0.022359         0.6084 
  19   0.0000       0.031895         0.8679 
  20   0.0000       0.037430         1.0185 
  21   0.0000       0.037432         1.0186 
  22   0.0000       0.103231         2.8091 
  23   0.0000       0.106295         2.8924 
  24   0.0000       0.106295         2.8924 
  25   0.0000       0.117990         3.2107 
  26   0.0000       0.117990         3.2107 
  27   0.0000       0.308110         8.3841 
  28   0.0000       0.327271         8.9055 
  29   0.0000       0.327272         8.9055 
  30   0.0000       0.384890        10.4734 
  31   0.0000       0.391336        10.6488 
  32   0.0000       0.391336        10.6488 
  33   0.0000       0.414434        11.2773 
  34   0.0000       0.414434        11.2773 
  35   0.0000       0.692560        18.8455 
  36   0.0000       1.407401        38.2973 
  37   0.0000       1.415375        38.5143 
  38   0.0000       1.415968        38.5304 
  39   0.0000       1.415968        38.5304 
  40   0.0000       1.421066        38.6692 
  41   0.0000       1.421066        38.6692 
  42   0.0000       1.438939        39.1555 
  43   0.0000       1.438939        39.1555 
  44   0.0000       1.445735        39.3404 
  45   0.0000       1.445735        39.3404 
  46   0.0000       1.470280        40.0083 
  47   0.0000       1.470280        40.0083 
  48   0.0000       1.564570        42.5741 
  49   0.0000       1.600676        43.5566 
  50   0.0000       1.600676        43.5566 
  51   0.0000       4.025210       109.5315 
  52   0.0000       4.034496       109.7842 
  53   0.0000       4.034496       109.7842 
  54   0.0000       4.063018       110.5603 
  55   0.0000       4.063018       110.5603 
  56   0.0000       7.044422       191.6885 

                 SPIN DOWN ORBITALS
  NO   OCC          E(Eh)            E(eV) 
   0   1.0000    -481.765653    -13109.5099 
   1   1.0000     -61.983312     -1686.6517 
   2   1.0000     -55.815969     -1518.8297 
   3   1.0000     -55.813720     -1518.7685 
   4   1.0000     -55.813720     -1518.7685 
   5   1.0000      -8.511941      -231.6217 
   6   1.0000      -6.359553      -173.0522 
   7   1.0000      -6.343720      -172.6214 
   8   1.0000      -6.343720      -172.6214 
   9   1.0000      -2.523533       -68.6688 
  10   1.0000      -2.520169       -68.5773 
  11   1.0000      -2.520169       -68.5773 
  12   1.0000      -2.508890       -68.2704 
  13   1.0000      -2.508890       -68.2704 
  14   1.0000      -0.701419       -19.0866 
  15   1.0000      -0.278975        -7.5913 
  16   1.0000      -0.278975        -7.5913 
  17   0.0000      -0.262741        -7.1495 
  18   0.0000       0.030398         0.8272 
  19   0.0000       0.038792         1.0556 
  20   0.0000       0.038795         1.0557 
  21   0.0000       0.041757         1.1363 
  22   0.0000       0.119702         3.2573 
  23   0.0000       0.119702         3.2573 
  24   0.0000       0.120621         3.2823 
  25   0.0000       0.120622         3.2823 
  26   0.0000       0.124622         3.3911 
  27   0.0000       0.331552         9.0220 
  28   0.0000       0.331705         9.0262 
  29   0.0000       0.331707         9.0262 
  30   0.0000       0.417559        11.3624 
  31   0.0000       0.417559        11.3624 
  32   0.0000       0.421994        11.4830 
  33   0.0000       0.421995        11.4831 
  34   0.0000       0.430374        11.7111 
  35   0.0000       0.711005        19.3474 
  36   0.0000       1.450385        39.4670 
  37   0.0000       1.450386        39.4670 
  38   0.0000       1.451650        39.5014 
  39   0.0000       1.451650        39.5014 
  40   0.0000       1.453070        39.5400 
  41   0.0000       1.470332        40.0098 
  42   0.0000       1.470332        40.0098 
  43   0.0000       1.474402        40.1205 
  44   0.0000       1.474402        40.1205 
  45   0.0000       1.474702        40.1287 
  46   0.0000       1.474702        40.1287 
  47   0.0000       1.479323        40.2544 
  48   0.0000       1.599995        43.5381 
  49   0.0000       1.610035        43.8113 
  50   0.0000       1.610036        43.8113 
  51   0.0000       4.048770       110.1726 
  52   0.0000       4.050054       110.2076 
  53   0.0000       4.050055       110.2076 
  54   0.0000       4.072255       110.8117 
  55   0.0000       4.072255       110.8117 
  56   0.0000       7.058998       192.0851 

                    ********************************
                    * MULLIKEN POPULATION ANALYSIS *
                    ********************************

--------------------------------------------
MULLIKEN ATOMIC CHARGES AND SPIN POPULATIONS
--------------------------------------------
   0 Br:    0.000000    1.000000
Sum of atomic charges         :    0.0000000
Sum of atomic spin populations:    1.0000000

-----------------------------------------------------
MULLIKEN REDUCED ORBITAL CHARGES AND SPIN POPULATIONS
-----------------------------------------------------
CHARGE
  0 Brs       :     7.998832  s :     7.998832
      pz      :     5.037689  p :    16.999137
      px      :     5.964234
      py      :     5.997214
      dz2     :     2.001038  d :    10.001168
      dxz     :     2.000120
      dyz     :     2.000009
      dx2y2   :     2.000001
      dxy     :     2.000000
      f0      :     0.000331  f :     0.000863
      f+1     :     0.000252
      f-1     :     0.000233
      f+2     :     0.000023
      f-2     :     0.000023
      f+3     :     0.000000
      f-3     :     0.000000

SPIN
  0 Brs       :    -0.000935  s :    -0.000935
      pz      :     0.961613  p :     0.999149
      px      :     0.035255
      py      :     0.002281
      dz2     :     0.000832  d :     0.000935
      dxz     :     0.000096
      dyz     :     0.000007
      dx2y2   :     0.000001
      dxy     :     0.000000
      f0      :     0.000330  f :     0.000851
      f+1     :     0.000247
      f-1     :     0.000227
      f+2     :     0.000023
      f-2     :     0.000023
      f+3     :     0.000000
      f-3     :     0.000000


                     *******************************
                     * LOEWDIN POPULATION ANALYSIS *
                     *******************************

-------------------------------------------
LOEWDIN ATOMIC CHARGES AND SPIN POPULATIONS
-------------------------------------------
   0 Br:   -0.000000    1.000000

----------------------------------------------------
LOEWDIN REDUCED ORBITAL CHARGES AND SPIN POPULATIONS
----------------------------------------------------
CHARGE
  0 Brs       :     7.998832  s :     7.998832
      pz      :     5.037689  p :    16.999137
      px      :     5.964234
      py      :     5.997214
      dz2     :     2.001038  d :    10.001168
      dxz     :     2.000120
      dyz     :     2.000009
      dx2y2   :     2.000001
      dxy     :     2.000000
      f0      :     0.000331  f :     0.000863
      f+1     :     0.000252
      f-1     :     0.000233
      f+2     :     0.000023
      f-2     :     0.000023
      f+3     :     0.000000
      f-3     :     0.000000

SPIN
  0 Brs       :    -0.000935  s :    -0.000935
      pz      :     0.961613  p :     0.999149
      px      :     0.035255
      py      :     0.002281
      dz2     :     0.000832  d :     0.000935
      dxz     :     0.000096
      dyz     :     0.000007
      dx2y2   :     0.000001
      dxy     :     0.000000
      f0      :     0.000330  f :     0.000851
      f+1     :     0.000247
      f-1     :     0.000227
      f+2     :     0.000023
      f-2     :     0.000023
      f+3     :     0.000000
      f-3     :     0.000000


                      *****************************
                      * MAYER POPULATION ANALYSIS *
                      *****************************

  NA   - Mulliken gross atomic population
  ZA   - Total nuclear charge
  QA   - Mulliken gross atomic charge
  VA   - Mayer's total valence
  BVA  - Mayer's bonded valence
  FA   - Mayer's free valence

  ATOM       NA         ZA         QA         VA         BVA        FA
  0 Br    35.0000    35.0000    -0.0000     1.0054     0.0000     1.0054

  Mayer bond orders larger than 0.100000


-------
TIMINGS
-------

Total SCF time: 0 days 0 hours 0 min 1 sec 

Total time                  ....       1.015 sec
Sum of individual times     ....       0.922 sec  ( 90.9%)

Fock matrix formation       ....       0.701 sec  ( 69.1%)
  Split-RI-J                ....       0.531 sec  ( 75.7% of F)
  XC integration            ....       0.117 sec  ( 16.7% of F)
    Basis function eval.    ....       0.005 sec  (  3.9% of XC)
    Density eval.           ....       0.008 sec  (  7.0% of XC)
    XC-Functional eval.     ....       0.006 sec  (  5.1% of XC)
    XC-Potential eval.      ....       0.014 sec  ( 12.2% of XC)
Diagonalization             ....       0.007 sec  (  0.7%)
Density matrix formation    ....       0.002 sec  (  0.2%)
Population analysis         ....       0.003 sec  (  0.3%)
Initial guess               ....       0.085 sec  (  8.4%)
Orbital Transformation      ....       0.000 sec  (  0.0%)
Orbital Orthonormalization  ....       0.000 sec  (  0.0%)
DIIS solution               ....       0.003 sec  (  0.3%)
Grid generation             ....       0.120 sec  ( 11.9%)


-------------------------------------------------------------------------------
                          DFT DISPERSION CORRECTION                            
                                                                               
                              DFTD3 V3.1  Rev 1                                
                          USING Becke-Johnson damping                          
-------------------------------------------------------------------------------
The TPSS functional is recognized
Active option DFTDOPT                   ...         4   

molecular C6(AA) [au] = 167.168230 


            DFT-D V3
 parameters
 s6 scaling factor         :     1.0000 
 a1 scaling factor         :     0.4535 
 s8 scaling factor         :     1.9435 
 a2 scaling factor         :     4.4752 
 ad hoc parameters k1-k3   :    16.0000     1.3333    -4.0000 

 Edisp/kcal,au: -0.000000000000  -0.000000000000 
 E6   /kcal   :  -0.000000000 
 E8   /kcal   :  -0.000000000 
 % E8         :          -nan 

-------------------------   ----------------
Dispersion correction            0.000000000
-------------------------   ----------------


-------------------------   --------------------
FINAL SINGLE POINT ENERGY     -2574.017438930393
-------------------------   --------------------


                            ***************************************
                            *     ORCA property calculations      *
                            ***************************************

                                    ---------------------
                                    Active property flags
                                    ---------------------
   (+) Dipole Moment


------------------------------------------------------------------------------
                       ORCA ELECTRIC PROPERTIES CALCULATION
------------------------------------------------------------------------------

Dipole Moment Calculation                       ... on
Quadrupole Moment Calculation                   ... off
Polarizability Calculation                      ... off
GBWName                                         ... TMD06_Br.gbw
Electron density file                           ... TMD06_Br.scfp
The origin for moment calculation is the CENTER OF MASS  = ( 0.000000,  0.000000  0.000000)

-------------
DIPOLE MOMENT
-------------
                                X             Y             Z
Electronic contribution:     -0.00000      -0.00000      -0.00000
Nuclear contribution   :      0.00000       0.00000       0.00000
                        -----------------------------------------
Total Dipole Moment    :     -0.00000      -0.00000      -0.00000
                        -----------------------------------------
Magnitude (a.u.)       :      0.00000
Magnitude (Debye)      :      0.00000



--------------------
Rotational spectrum 
--------------------
 
Rotational constants in cm-1:     0.000000     0.000000     0.000000 
Rotational constants in MHz :     0.000000     0.000000     0.000000 

 Dipole components along the rotational axes: 
x,y,z [a.u.] :    -0.000000    -0.000000    -0.000000 
x,y,z [Debye]:    -0.000000    -0.000000    -0.000000 

 

Timings for individual modules:

Sum of individual times         ...        1.860 sec (=   0.031 min)
GTO integral calculation        ...        0.527 sec (=   0.009 min)  28.3 %
SCF iterations                  ...        1.334 sec (=   0.022 min)  71.7 %
                             ****ORCA TERMINATED NORMALLY****
TOTAL RUN TIME: 0 days 0 hours 0 minutes 2 seconds 341 msec
