
                                 *****************
                                 * O   R   C   A *
                                 *****************

           --- An Ab Initio, DFT and Semiempirical electronic structure package ---

                  #######################################################
                  #                        -***-                        #
                  #          Department of theory and spectroscopy      #
                  #               Directorship: Frank Neese             #
                  #        Max Planck Institute fuer Kohlenforschung    #
                  #                Kaiser Wilhelm Platz 1               #
                  #                 D-45470 Muelheim/Ruhr               #
                  #                      Germany                        #
                  #                                                     #
                  #                  All rights reserved                #
                  #                        -***-                        #
                  #######################################################


                         Program Version 4.2.0 -  RELEASE  -


 With contributions from (in alphabetic order):
   Daniel Aravena         : Magnetic Suceptibility
   Michael Atanasov       : Ab Initio Ligand Field Theory (pilot matlab implementation)
   Alexander A. Auer      : GIAO ZORA, VPT2
   Ute Becker             : Parallelization
   Giovanni Bistoni       : ED, misc. LED, open-shell LED, HFLED
   Martin Brehm           : Molecular dynamics
   Dmytro Bykov           : SCF Hessian
   Vijay G. Chilkuri      : MRCI spin determinant printing, contributions to CSF-ICE
   Dipayan Datta          : RHF DLPNO-CCSD density
   Achintya Kumar Dutta   : EOM-CC, STEOM-CC
   Dmitry Ganyushin       : Spin-Orbit,Spin-Spin,Magnetic field MRCI
   Miquel Garcia          : C-PCM Hessian, Gaussian charge scheme
   Yang Guo               : DLPNO-NEVPT2, CIM, IAO-localization
   Andreas Hansen         : Spin unrestricted coupled pair/coupled cluster methods
   Benjamin Helmich-Paris : CASSCF linear response (MC-RPA)
   Lee Huntington         : MR-EOM, pCC
   Robert Izsak           : Overlap fitted RIJCOSX, COSX-SCS-MP3, EOM
   Christian Kollmar      : KDIIS, OOCD, Brueckner-CCSD(T), CCSD density
   Simone Kossmann        : Meta GGA functionals, TD-DFT gradient, OOMP2, MP2 Hessian
   Martin Krupicka        : AUTO-CI
   Lucas Lang             : DCDCAS
   Dagmar Lenk            : GEPOL surface, SMD
   Dimitrios Liakos       : Extrapolation schemes; Compound Job, initial MDCI parallelization
   Dimitrios Manganas     : Further ROCIS development; embedding schemes
   Dimitrios Pantazis     : SARC Basis sets
   Taras Petrenko         : DFT Hessian,TD-DFT gradient, ASA, ECA, R-Raman, ABS, FL, XAS/XES, NRVS
   Peter Pinski           : DLPNO-MP2, DLPNO-MP2 Gradient
   Christoph Reimann      : Effective Core Potentials
   Marius Retegan         : Local ZFS, SOC
   Christoph Riplinger    : Optimizer, TS searches, QM/MM, DLPNO-CCSD(T), (RO)-DLPNO pert. Triples
   Tobias Risthaus        : Range-separated hybrids, TD-DFT gradient, RPA, STAB
   Michael Roemelt        : Original ROCIS implementation
   Masaaki Saitow         : Open-shell DLPNO-CCSD energy and density
   Barbara Sandhoefer     : DKH picture change effects
   Avijit Sen             : IP-ROCIS
   Kantharuban Sivalingam : CASSCF convergence, NEVPT2, FIC-MRCI
   Bernardo de Souza      : ESD, SOC TD-DFT
   Georgi Stoychev        : AutoAux, RI-MP2 NMR
   Willem Van den Heuvel  : Paramagnetic NMR
   Boris Wezisla          : Elementary symmetry handling
   Frank Wennmohs         : Technical directorship


 We gratefully acknowledge several colleagues who have allowed us to
 interface, adapt or use parts of their codes:
   Stefan Grimme, W. Hujo, H. Kruse,             : VdW corrections, initial TS optimization,
                  C. Bannwarth                     DFT functionals, gCP, sTDA/sTD-DF
   Ed Valeev, F. Pavosevic, A. Kumar             : LibInt (2-el integral package), F12 methods
   Garnet Chan, S. Sharma, J. Yang, R. Olivares  : DMRG
   Ulf Ekstrom                                   : XCFun DFT Library
   Mihaly Kallay                                 : mrcc  (arbitrary order and MRCC methods)
   Andreas Klamt, Michael Diedenhofen            : otool_cosmo (COSMO solvation model)
   Jiri Pittner, Ondrej Demel                    : Mk-CCSD
   Frank Weinhold                                : gennbo (NPA and NBO analysis)
   Christopher J. Cramer and Donald G. Truhlar   : smd solvation model
   Lars Goerigk                                  : TD-DFT with DH, B97 family of functionals
   V. Asgeirsson, H. Jonsson                     : NEB implementation
   FAccTs GmbH                                   : IRC, NEB, NEB-TS, Multilevel, MM, QM/MM, CI optimization
   S Lehtola, MJT Oliveira, MAL Marques          : LibXC Library


 Your calculation uses the libint2 library for the computation of 2-el integrals
 For citations please refer to: http://libint.valeyev.net

 Your ORCA version has been built with support for libXC version: 4.2.3
 For citations please refer to: https://tddft.org/programs/libxc/

 This ORCA versions uses:
   CBLAS   interface :  Fast vector & matrix operations
   LAPACKE interface :  Fast linear algebra routines
   SCALAPACK package :  Parallel linear algebra routines


Your calculation utilizes the atom-pairwise dispersion correction
with the Becke-Johnson damping scheme (D3BJ)
Cite in your paper:
S.Grimme, S.Ehrlich, L.Goerigk, J Comput Chem, (2011), 32, 1456–1465 
S.Grimme, J.Antony, S.Ehrlich and H.Krieg, J.Chem.Phys., 132, (2010), 154104 
   

----- Orbital basis set information -----
Your calculation utilizes the basis: def2-TZVPPD
   F. Weigend and R. Ahlrichs, Phys. Chem. Chem. Phys. 7, 3297 (2005).
   D. Rappoport and F. Furche, J. Chem. Phys. 133 134105 (2010).

----- AuxJ basis set information -----
Your calculation utilizes the auxiliary basis: def2/J
   F. Weigend, Phys. Chem. Chem. Phys. 8, 1057 (2006).

================================================================================
                                        WARNINGS
                       Please study these warnings very carefully!
================================================================================


WARNING: your system is open-shell and RHF/RKS was chosen
  ===> : WILL SWITCH to UHF/UKS


INFO   : the flag for use of LIBINT has been found!

================================================================================
                                       INPUT FILE
================================================================================
NAME = TMD12_Co.in
|  1> #
|  2> # TMD12_Co TPSS-D3BJ/Def2-TZVPPD
|  3> #
|  4> ! tpss d3bj def2-tzvppd def2/j grid4 nofinalgrid
|  5> 
|  6> *xyz 0 4
|  7> Co       0.000000    0.000000    0.000000 
|  8> *
|  9> 
| 10> %maxcore 5000
| 11> 
| 12> %pal
| 13> nprocs = 24
| 14> end
| 15> 
| 16> 
| 17>                          ****END OF INPUT****
================================================================================

                       ****************************
                       * Single Point Calculation *
                       ****************************

---------------------------------
CARTESIAN COORDINATES (ANGSTROEM)
---------------------------------
  Co     0.000000    0.000000    0.000000

----------------------------
CARTESIAN COORDINATES (A.U.)
----------------------------
  NO LB      ZA    FRAG     MASS         X           Y           Z
   0 Co   27.0000    0    58.930    0.000000    0.000000    0.000000

--------------------------------
INTERNAL COORDINATES (ANGSTROEM)
--------------------------------
 Co     0   0   0     0.000000000000     0.00000000     0.00000000

---------------------------
INTERNAL COORDINATES (A.U.)
---------------------------
 Co     0   0   0     0.000000000000     0.00000000     0.00000000

---------------------
BASIS SET INFORMATION
---------------------
There are 1 groups of distinct atoms

 Group   1 Type Co  : 17s13p7d2f1g contracted to 6s6p4d2f1g pattern {842111/631111/4111/11/1}

Atom   0Co   basis set group =>   1
---------------------------------
AUXILIARY/J BASIS SET INFORMATION
---------------------------------
There are 1 groups of distinct atoms

 Group   1 Type Co  : 19s5p5d3f3g contracted to 8s5p5d2f3g pattern {121111111/11111/11111/21/111}

Atom   0Co   basis set group =>   1


           ************************************************************
           *        Program running with 24 parallel MPI-processes    *
           *              working on a common directory               *
           ************************************************************
------------------------------------------------------------------------------
                           ORCA GTO INTEGRAL CALCULATION
                           -- RI-GTO INTEGRALS CHOSEN --
------------------------------------------------------------------------------

                         BASIS SET STATISTICS AND STARTUP INFO

Gaussian basis set:
 # of primitive gaussian shells          ...   40
 # of primitive gaussian functions       ...  114
 # of contracted shells                  ...   19
 # of contracted basis functions         ...   67
 Highest angular momentum                ...    4
 Maximum contraction depth               ...    8
Auxiliary gaussian basis set:
 # of primitive gaussian shells          ...   35
 # of primitive gaussian functions       ...  107
 # of contracted shells                  ...   23
 # of contracted aux-basis functions     ...   89
 Highest angular momentum                ...    4
 Maximum contraction depth               ...   12
Ratio of auxiliary to basis functions    ...  1.33
Integral package used                  ... LIBINT
 One Electron integrals                  ... done
 Ordering auxiliary basis shells         ... done
 Integral threshhold             Thresh  ...  1.000e-10
 Primitive cut-off               TCut    ...  1.000e-11
 Pre-screening matrix                    ... done
 Shell pair data                         ... 
 Ordering of the shell pairs             ... done (   0.000 sec) 190 of 190 pairs
 Determination of significant pairs      ... done (   0.000 sec)
 Creation of shell pair data             ... done (   0.000 sec)
 Storage of shell pair data              ... done (   0.042 sec)
 Shell pair data done in (   0.042 sec)
 Computing two index integrals           ... done
 Cholesky decomposition of the V-matrix  ... done


Timings:
 Total evaluation time                   ...   0.181 sec (  0.003 min)
 One electron matrix time                ...   0.014 sec (  0.000 min) =  7.8%
 Schwartz matrix evaluation time         ...   0.098 sec (  0.002 min) = 53.9%
 Two index repulsion integral time       ...   0.000 sec (  0.000 min) =  0.2%
 Cholesky decomposition of V             ...   0.001 sec (  0.000 min) =  0.3%
 Three index repulsion integral time     ...   0.000 sec (  0.000 min) =  0.0%



           ************************************************************
           *        Program running with 24 parallel MPI-processes    *
           *              working on a common directory               *
           ************************************************************
-------------------------------------------------------------------------------
                                 ORCA SCF
-------------------------------------------------------------------------------

------------
SCF SETTINGS
------------
Hamiltonian:
 Density Functional     Method          .... DFT(GTOs)
 Exchange Functional    Exchange        .... TPSS
 Correlation Functional Correlation     .... TPSS
 LDA part of GGA corr.  LDAOpt          .... PW91-LDA
 Gradients option       PostSCFGGA      .... off
   Density functional embedding theory  .... OFF
   NL short-range parameter             ....  5.000000
 RI-approximation to the Coulomb term is turned on
   Number of auxiliary basis functions  .... 89


General Settings:
 Integral files         IntName         .... TMD12_Co
 Hartree-Fock type      HFTyp           .... UHF
 Total Charge           Charge          ....    0
 Multiplicity           Mult            ....    4
 Number of Electrons    NEL             ....   27
 Basis Dimension        Dim             ....   67
 Nuclear Repulsion      ENuc            ....      0.0000000000 Eh

Convergence Acceleration:
 DIIS                   CNVDIIS         .... on
   Start iteration      DIISMaxIt       ....    12
   Startup error        DIISStart       ....  0.200000
   # of expansion vecs  DIISMaxEq       ....     5
   Bias factor          DIISBfac        ....   1.050
   Max. coefficient     DIISMaxC        ....  10.000
 Newton-Raphson         CNVNR           .... off
 SOSCF                  CNVSOSCF        .... off
 Level Shifting         CNVShift        .... on
   Level shift para.    LevelShift      ....    0.2500
   Turn off err/grad.   ShiftErr        ....    0.0010
 Zerner damping         CNVZerner       .... off
 Static damping         CNVDamp         .... on
   Fraction old density DampFac         ....    0.7000
   Max. Damping (<1)    DampMax         ....    0.9800
   Min. Damping (>=0)   DampMin         ....    0.0000
   Turn off err/grad.   DampErr         ....    0.1000
 Fernandez-Rico         CNVRico         .... off

SCF Procedure:
 Maximum # iterations   MaxIter         ....   125
 SCF integral mode      SCFMode         .... Direct
   Integral package                     .... LIBINT
 Reset frequency        DirectResetFreq ....    20
 Integral Threshold     Thresh          ....  1.000e-10 Eh
 Primitive CutOff       TCut            ....  1.000e-11 Eh

Convergence Tolerance:
 Convergence Check Mode ConvCheckMode   .... Total+1el-Energy
 Convergence forced     ConvForced      .... 0
 Energy Change          TolE            ....  1.000e-06 Eh
 1-El. energy change                    ....  1.000e-03 Eh
 DIIS Error             TolErr          ....  1.000e-06


Diagonalization of the overlap matrix:
Smallest eigenvalue                        ... 4.316e-02
Time for diagonalization                   ...    0.002 sec
Threshold for overlap eigenvalues          ... 1.000e-08
Number of eigenvalues below threshold      ... 0
Time for construction of square roots      ...    0.001 sec
Total time needed                          ...    0.003 sec

-------------------
DFT GRID GENERATION
-------------------

General Integration Accuracy     IntAcc      ...  4.670
Radial Grid Type                 RadialGrid  ... Gauss-Chebyshev
Angular Grid (max. acc.)         AngularGrid ... Lebedev-302
Angular grid pruning method      GridPruning ... 3 (G Style)
Weight generation scheme         WeightScheme... Becke
Basis function cutoff            BFCut       ...    1.0000e-10
Integration weight cutoff        WCut        ...    1.0000e-14
Grids for H and He will be reduced by one unit

# of grid points (after initial pruning)     ...   9640 (   0.0 sec)
# of grid points (after weights+screening)   ...   9640 (   0.0 sec)
Grid point division into batches done        ...    0.1 sec
Reduced shell lists constructed in    0.1 sec

Total number of grid points                  ...     9640
Total number of batches                      ...      151
Average number of points per batch           ...       63
Average number of grid points per atom       ...     9640
Average number of shells per batch           ...     3.50 (18.42%)
Average number of basis functions per batch  ...    10.50 (15.67%)
Average number of large shells per batch     ...     1.75 (50.00%)
Average number of large basis fcns per batch ...     3.50 (33.33%)
Maximum spatial batch extension              ...  27.95, 22.27, 22.27 au
Average spatial batch extension              ...   0.96,  0.89,  0.86 au

Time for grid setup =    0.123 sec

------------------------------
INITIAL GUESS: MODEL POTENTIAL
------------------------------
Loading Hartree-Fock densities                     ... done
Calculating cut-offs                               ... done
Setting up the integral package                    ... done
Initializing the effective Hamiltonian             ... done
Starting the Coulomb interaction                   ... done (   0.0 sec)
Reading the grid                                   ... done
Mapping shells                                     ... done
Starting the XC term evaluation                    ... done (   0.0 sec)
  promolecular density results
     # of electrons  =     27.000029305
     EX              =    -57.704419779
     EC              =     -1.200013627
     EX+EC           =    -58.904433406
Transforming the Hamiltonian                       ... done (   0.0 sec)
Diagonalizing the Hamiltonian                      ... done (   0.0 sec)
Back transforming the eigenvectors                 ... done (   0.0 sec)
Now organizing SCF variables                       ... done
                      ------------------
                      INITIAL GUESS DONE (   0.2 sec)
                      ------------------
--------------
SCF ITERATIONS
--------------
ITER       Energy         Delta-E        Max-DP      RMS-DP      [F,P]     Damp
               ***  Starting incremental Fock matrix formation  ***
  0  -1382.7118002608   0.000000000000 0.04332508  0.00132107  0.2414618 0.7000
  1  -1382.7371019319  -0.025301671134 0.02661891  0.00051708  0.0184451 0.7000
                               ***Turning on DIIS***
  2  -1382.7434151994  -0.006313267432 0.02818079  0.00077801  0.0359443 0.0000
  3  -1382.7642359644  -0.020820765079 0.00875294  0.00035457  0.0498360 0.0000
  4  -1382.7664509730  -0.002215008583 0.00255005  0.00010776  0.0118639 0.0000
  5  -1382.7666944798  -0.000243506808 0.00277224  0.00008726  0.0029831 0.0000
  6  -1382.7668098367  -0.000115356882 0.00253518  0.00007745  0.0012564 0.0000
  7  -1382.7668910399  -0.000081203192 0.00234668  0.00006879  0.0010170 0.0000
  8  -1382.7669509713  -0.000059931401 0.00904860  0.00027729  0.0008521 0.0000
  9  -1382.7670712024  -0.000120231056 0.00037415  0.00001691  0.0030025 0.0000
 10  -1382.7670824144  -0.000011211988 0.00157889  0.00005414  0.0006987 0.0000
 11  -1382.7670870280  -0.000004613629 0.00102802  0.00002869  0.0000640 0.0000
                 **** Energy Check signals convergence ****

               *****************************************************
               *                     SUCCESS                       *
               *           SCF CONVERGED AFTER  12 CYCLES          *
               *****************************************************


----------------
TOTAL SCF ENERGY
----------------

Total Energy       :        -1382.76708748 Eh          -37627.00537 eV

Components:
Nuclear Repulsion  :            0.00000000 Eh               0.00000 eV
Electronic Energy  :        -1382.76708748 Eh          -37627.00537 eV
One Electron Energy:        -1917.35283840 Eh          -52173.82320 eV
Two Electron Energy:          534.58575093 Eh           14546.81783 eV

Virial components:
Potential Energy   :        -2763.16088119 Eh          -75189.43013 eV
Kinetic Energy     :         1380.39379372 Eh           37562.42476 eV
Virial Ratio       :            2.00171929


DFT components:
N(Alpha)           :       14.999999850091 electrons
N(Beta)            :       11.999999996034 electrons
N(Total)           :       26.999999846125 electrons
E(X)               :      -58.214361559355 Eh       
E(C)               :       -1.200195310208 Eh       
E(XC)              :      -59.414556869563 Eh       
DFET-embed. en.    :        0.000000000000 Eh       

---------------
SCF CONVERGENCE
---------------

  Last Energy change         ...   -4.4712e-07  Tolerance :   1.0000e-06
  Last MAX-Density change    ...    9.3868e-04  Tolerance :   1.0000e-05
  Last RMS-Density change    ...    2.5895e-05  Tolerance :   1.0000e-06
  Last DIIS Error            ...    6.1510e-05  Tolerance :   1.0000e-06

             **** THE GBW FILE WAS UPDATED (TMD12_Co.gbw) ****
             **** DENSITY FILE WAS UPDATED (TMD12_Co.scfp) ****
             **** ENERGY FILE WAS UPDATED (TMD12_Co.en.tmp) ****
----------------------
UHF SPIN CONTAMINATION
----------------------

Warning: in a DFT calculation there is little theoretical justification to 
         calculate <S**2> as in Hartree-Fock theory. We will do it anyways
         but you should keep in mind that the values have only limited relevance

Expectation value of <S**2>     :     3.750496
Ideal value S*(S+1) for S=1.5   :     3.750000
Deviation                       :     0.000496

             **** THE GBW FILE WAS UPDATED (TMD12_Co.gbw) ****
             **** DENSITY FILE WAS UPDATED (TMD12_Co.scfp) ****
----------------
ORBITAL ENERGIES
----------------
                 SPIN UP ORBITALS
  NO   OCC          E(Eh)            E(eV) 
   0   1.0000    -276.608144     -7526.8902 
   1   1.0000     -32.380843      -881.1275 
   2   1.0000     -28.037468      -762.9383 
   3   1.0000     -28.037431      -762.9373 
   4   1.0000     -28.037373      -762.9357 
   5   1.0000      -3.554835       -96.7320 
   6   1.0000      -2.259651       -61.4882 
   7   1.0000      -2.259605       -61.4870 
   8   1.0000      -2.259543       -61.4853 
   9   1.0000      -0.204512        -5.5651 
  10   1.0000      -0.204510        -5.5650 
  11   1.0000      -0.170801        -4.6477 
  12   1.0000      -0.165457        -4.5023 
  13   1.0000      -0.165433        -4.5017 
  14   1.0000      -0.165420        -4.5013 
  15   0.0000      -0.033309        -0.9064 
  16   0.0000      -0.033212        -0.9037 
  17   0.0000      -0.033155        -0.9022 
  18   0.0000       0.103967         2.8291 
  19   0.0000       0.104074         2.8320 
  20   0.0000       0.104136         2.8337 
  21   0.0000       0.112228         3.0539 
  22   0.0000       0.189505         5.1567 
  23   0.0000       0.189506         5.1567 
  24   0.0000       0.190223         5.1762 
  25   0.0000       0.190257         5.1772 
  26   0.0000       0.190277         5.1777 
  27   0.0000       0.586510        15.9598 
  28   0.0000       0.586733        15.9658 
  29   0.0000       0.586861        15.9693 
  30   0.0000       0.939066        25.5533 
  31   0.0000       0.939067        25.5533 
  32   0.0000       0.948525        25.8107 
  33   0.0000       0.948722        25.8160 
  34   0.0000       0.948829        25.8190 
  35   0.0000       2.608508        70.9811 
  36   0.0000       2.608647        70.9849 
  37   0.0000       2.608727        70.9871 
  38   0.0000       2.653870        72.2155 
  39   0.0000       2.653882        72.2158 
  40   0.0000       2.653891        72.2160 
  41   0.0000       2.664275        72.4986 
  42   0.0000       2.664463        72.5037 
  43   0.0000       2.664786        72.5125 
  44   0.0000       2.679720        72.9189 
  45   0.0000       2.721344        74.0515 
  46   0.0000       3.723206       101.3136 
  47   0.0000       3.723210       101.3137 
  48   0.0000       3.752815       102.1193 
  49   0.0000       3.753025       102.1250 
  50   0.0000       3.753120       102.1276 
  51   0.0000       9.937681       270.4181 
  52   0.0000       9.949131       270.7296 
  53   0.0000       9.949143       270.7299 
  54   0.0000       9.949174       270.7308 
  55   0.0000       9.957517       270.9578 
  56   0.0000       9.957521       270.9579 
  57   0.0000       9.982368       271.6340 
  58   0.0000       9.982422       271.6355 
  59   0.0000       9.982454       271.6364 
  60   0.0000      10.383821       282.5581 
  61   0.0000      10.383860       282.5592 
  62   0.0000      10.383881       282.5598 
  63   0.0000      10.411398       283.3086 
  64   0.0000      10.411531       283.3122 
  65   0.0000      10.411607       283.3142 
  66   0.0000      10.445988       284.2498 

                 SPIN DOWN ORBITALS
  NO   OCC          E(Eh)            E(eV) 
   0   1.0000    -276.606784     -7526.8532 
   1   1.0000     -32.349550      -880.2760 
   2   1.0000     -28.011859      -762.2414 
   3   1.0000     -28.011806      -762.2400 
   4   1.0000     -28.011716      -762.2376 
   5   1.0000      -3.472521       -94.4921 
   6   1.0000      -2.176532       -59.2264 
   7   1.0000      -2.176445       -59.2241 
   8   1.0000      -2.176396       -59.2227 
   9   1.0000      -0.127340        -3.4651 
  10   1.0000      -0.127297        -3.4639 
  11   1.0000      -0.127180        -3.4607 
  12   0.0000      -0.117829        -3.2063 
  13   0.0000      -0.061430        -1.6716 
  14   0.0000      -0.061396        -1.6707 
  15   0.0000      -0.000548        -0.0149 
  16   0.0000      -0.000331        -0.0090 
  17   0.0000      -0.000064        -0.0017 
  18   0.0000       0.141656         3.8547 
  19   0.0000       0.141865         3.8604 
  20   0.0000       0.142142         3.8679 
  21   0.0000       0.147448         4.0123 
  22   0.0000       0.211367         5.7516 
  23   0.0000       0.211420         5.7530 
  24   0.0000       0.211511         5.7555 
  25   0.0000       0.226156         6.1540 
  26   0.0000       0.226370         6.1599 
  27   0.0000       0.626770        17.0553 
  28   0.0000       0.626946        17.0601 
  29   0.0000       0.627183        17.0665 
  30   0.0000       0.989517        26.9261 
  31   0.0000       0.989628        26.9291 
  32   0.0000       0.989826        26.9345 
  33   0.0000       1.021288        27.7907 
  34   0.0000       1.021372        27.7929 
  35   0.0000       2.668818        72.6222 
  36   0.0000       2.668851        72.6231 
  37   0.0000       2.668868        72.6236 
  38   0.0000       2.687298        73.1251 
  39   0.0000       2.717005        73.9335 
  40   0.0000       2.717053        73.9348 
  41   0.0000       2.717079        73.9355 
  42   0.0000       2.750354        74.8409 
  43   0.0000       2.750394        74.8420 
  44   0.0000       2.750404        74.8423 
  45   0.0000       2.793844        76.0244 
  46   0.0000       3.791081       103.1606 
  47   0.0000       3.791200       103.1638 
  48   0.0000       3.791251       103.1652 
  49   0.0000       3.836860       104.4063 
  50   0.0000       3.836894       104.4072 
  51   0.0000      10.034078       273.0411 
  52   0.0000      10.034155       273.0432 
  53   0.0000      10.034202       273.0445 
  54   0.0000      10.045620       273.3552 
  55   0.0000      10.045620       273.3552 
  56   0.0000      10.048231       273.4263 
  57   0.0000      10.048256       273.4269 
  58   0.0000      10.048302       273.4282 
  59   0.0000      10.060679       273.7650 
  60   0.0000      10.472430       284.9693 
  61   0.0000      10.509073       285.9664 
  62   0.0000      10.509100       285.9671 
  63   0.0000      10.509137       285.9682 
  64   0.0000      10.533442       286.6295 
  65   0.0000      10.533462       286.6301 
  66   0.0000      10.533485       286.6307 

                    ********************************
                    * MULLIKEN POPULATION ANALYSIS *
                    ********************************

--------------------------------------------
MULLIKEN ATOMIC CHARGES AND SPIN POPULATIONS
--------------------------------------------
   0 Co:    0.000000    3.000000
Sum of atomic charges         :    0.0000000
Sum of atomic spin populations:    3.0000000

-----------------------------------------------------
MULLIKEN REDUCED ORBITAL CHARGES AND SPIN POPULATIONS
-----------------------------------------------------
CHARGE
  0 Cos       :     7.000264  s :     7.000264
      pz      :     3.999946  p :    11.999837
      px      :     3.999946
      py      :     3.999946
      dz2     :     1.842467  d :     7.999695
      dxz     :     1.557479
      dyz     :     1.319046
      dx2y2   :     1.754089
      dxy     :     1.526614
      f0      :     0.000015  f :     0.000163
      f+1     :     0.000021
      f-1     :     0.000022
      f+2     :     0.000025
      f-2     :     0.000042
      f+3     :     0.000006
      f-3     :     0.000032
      g0      :     0.000005  g :     0.000040
      g+1     :     0.000004
      g-1     :     0.000002
      g+2     :     0.000003
      g-2     :     0.000007
      g+3     :     0.000003
      g-3     :     0.000008
      g+4     :     0.000003
      g-4     :     0.000005

SPIN
  0 Cos       :     0.999719  s :     0.999719
      pz      :     0.000025  p :     0.000074
      px      :     0.000025
      py      :     0.000025
      dz2     :     0.157528  d :     2.000275
      dxz     :     0.442516
      dyz     :     0.680945
      dx2y2   :     0.245907
      dxy     :     0.473380
      f0      :    -0.000007  f :    -0.000074
      f+1     :    -0.000010
      f-1     :    -0.000010
      f+2     :    -0.000012
      f-2     :    -0.000019
      f+3     :    -0.000002
      f-3     :    -0.000015
      g0      :     0.000001  g :     0.000005
      g+1     :     0.000000
      g-1     :     0.000001
      g+2     :     0.000001
      g-2     :     0.000000
      g+3     :     0.000002
      g-3     :    -0.000002
      g+4     :     0.000001
      g-4     :     0.000001


                     *******************************
                     * LOEWDIN POPULATION ANALYSIS *
                     *******************************

-------------------------------------------
LOEWDIN ATOMIC CHARGES AND SPIN POPULATIONS
-------------------------------------------
   0 Co:   -0.000000    3.000000

----------------------------------------------------
LOEWDIN REDUCED ORBITAL CHARGES AND SPIN POPULATIONS
----------------------------------------------------
CHARGE
  0 Cos       :     7.000264  s :     7.000264
      pz      :     3.999946  p :    11.999837
      px      :     3.999946
      py      :     3.999946
      dz2     :     1.842467  d :     7.999695
      dxz     :     1.557479
      dyz     :     1.319046
      dx2y2   :     1.754089
      dxy     :     1.526614
      f0      :     0.000015  f :     0.000163
      f+1     :     0.000021
      f-1     :     0.000022
      f+2     :     0.000025
      f-2     :     0.000042
      f+3     :     0.000006
      f-3     :     0.000032
      g0      :     0.000005  g :     0.000040
      g+1     :     0.000004
      g-1     :     0.000002
      g+2     :     0.000003
      g-2     :     0.000007
      g+3     :     0.000003
      g-3     :     0.000008
      g+4     :     0.000003
      g-4     :     0.000005

SPIN
  0 Cos       :     0.999719  s :     0.999719
      pz      :     0.000025  p :     0.000074
      px      :     0.000025
      py      :     0.000025
      dz2     :     0.157528  d :     2.000275
      dxz     :     0.442516
      dyz     :     0.680945
      dx2y2   :     0.245907
      dxy     :     0.473380
      f0      :    -0.000007  f :    -0.000074
      f+1     :    -0.000010
      f-1     :    -0.000010
      f+2     :    -0.000012
      f-2     :    -0.000019
      f+3     :    -0.000002
      f-3     :    -0.000015
      g0      :     0.000001  g :     0.000005
      g+1     :     0.000000
      g-1     :     0.000001
      g+2     :     0.000001
      g-2     :     0.000000
      g+3     :     0.000002
      g-3     :    -0.000002
      g+4     :     0.000001
      g-4     :     0.000001


                      *****************************
                      * MAYER POPULATION ANALYSIS *
                      *****************************

  NA   - Mulliken gross atomic population
  ZA   - Total nuclear charge
  QA   - Mulliken gross atomic charge
  VA   - Mayer's total valence
  BVA  - Mayer's bonded valence
  FA   - Mayer's free valence

  ATOM       NA         ZA         QA         VA         BVA        FA
  0 Co    27.0000    27.0000     0.0000     3.0010     0.0000     3.0010

  Mayer bond orders larger than 0.100000


-------
TIMINGS
-------

Total SCF time: 0 days 0 hours 0 min 1 sec 

Total time                  ....       1.652 sec
Sum of individual times     ....       1.552 sec  ( 94.0%)

Fock matrix formation       ....       1.313 sec  ( 79.5%)
  Split-RI-J                ....       1.018 sec  ( 77.5% of F)
  XC integration            ....       0.218 sec  ( 16.6% of F)
    Basis function eval.    ....       0.008 sec  (  3.5% of XC)
    Density eval.           ....       0.015 sec  (  6.8% of XC)
    XC-Functional eval.     ....       0.011 sec  (  4.8% of XC)
    XC-Potential eval.      ....       0.032 sec  ( 14.8% of XC)
Diagonalization             ....       0.018 sec  (  1.1%)
Density matrix formation    ....       0.004 sec  (  0.3%)
Population analysis         ....       0.004 sec  (  0.2%)
Initial guess               ....       0.081 sec  (  4.9%)
Orbital Transformation      ....       0.000 sec  (  0.0%)
Orbital Orthonormalization  ....       0.000 sec  (  0.0%)
DIIS solution               ....       0.009 sec  (  0.6%)
Grid generation             ....       0.123 sec  (  7.4%)


-------------------------------------------------------------------------------
                          DFT DISPERSION CORRECTION                            
                                                                               
                              DFTD3 V3.1  Rev 1                                
                          USING Becke-Johnson damping                          
-------------------------------------------------------------------------------
The TPSS functional is recognized
Active option DFTDOPT                   ...         4   

molecular C6(AA) [au] = 532.775878 


            DFT-D V3
 parameters
 s6 scaling factor         :     1.0000 
 a1 scaling factor         :     0.4535 
 s8 scaling factor         :     1.9435 
 a2 scaling factor         :     4.4752 
 ad hoc parameters k1-k3   :    16.0000     1.3333    -4.0000 

 Edisp/kcal,au: -0.000000000000  -0.000000000000 
 E6   /kcal   :  -0.000000000 
 E8   /kcal   :  -0.000000000 
 % E8         :          -nan 

-------------------------   ----------------
Dispersion correction            0.000000000
-------------------------   ----------------


-------------------------   --------------------
FINAL SINGLE POINT ENERGY     -1382.767087475102
-------------------------   --------------------


                            ***************************************
                            *     ORCA property calculations      *
                            ***************************************

                                    ---------------------
                                    Active property flags
                                    ---------------------
   (+) Dipole Moment


------------------------------------------------------------------------------
                       ORCA ELECTRIC PROPERTIES CALCULATION
------------------------------------------------------------------------------

Dipole Moment Calculation                       ... on
Quadrupole Moment Calculation                   ... off
Polarizability Calculation                      ... off
GBWName                                         ... TMD12_Co.gbw
Electron density file                           ... TMD12_Co.scfp
The origin for moment calculation is the CENTER OF MASS  = ( 0.000000,  0.000000  0.000000)

-------------
DIPOLE MOMENT
-------------
                                X             Y             Z
Electronic contribution:      0.00000      -0.00000       0.00000
Nuclear contribution   :      0.00000       0.00000       0.00000
                        -----------------------------------------
Total Dipole Moment    :      0.00000      -0.00000       0.00000
                        -----------------------------------------
Magnitude (a.u.)       :      0.00000
Magnitude (Debye)      :      0.00000



--------------------
Rotational spectrum 
--------------------
 
Rotational constants in cm-1:     0.000000     0.000000     0.000000 
Rotational constants in MHz :     0.000000     0.000000     0.000000 

 Dipole components along the rotational axes: 
x,y,z [a.u.] :     0.000000    -0.000000     0.000000 
x,y,z [Debye]:     0.000000    -0.000000     0.000000 

 

Timings for individual modules:

Sum of individual times         ...        2.521 sec (=   0.042 min)
GTO integral calculation        ...        0.548 sec (=   0.009 min)  21.8 %
SCF iterations                  ...        1.973 sec (=   0.033 min)  78.2 %
                             ****ORCA TERMINATED NORMALLY****
TOTAL RUN TIME: 0 days 0 hours 0 minutes 2 seconds 993 msec
