
                                 *****************
                                 * O   R   C   A *
                                 *****************

           --- An Ab Initio, DFT and Semiempirical electronic structure package ---

                  #######################################################
                  #                        -***-                        #
                  #          Department of theory and spectroscopy      #
                  #               Directorship: Frank Neese             #
                  #        Max Planck Institute fuer Kohlenforschung    #
                  #                Kaiser Wilhelm Platz 1               #
                  #                 D-45470 Muelheim/Ruhr               #
                  #                      Germany                        #
                  #                                                     #
                  #                  All rights reserved                #
                  #                        -***-                        #
                  #######################################################


                         Program Version 4.2.0 -  RELEASE  -


 With contributions from (in alphabetic order):
   Daniel Aravena         : Magnetic Suceptibility
   Michael Atanasov       : Ab Initio Ligand Field Theory (pilot matlab implementation)
   Alexander A. Auer      : GIAO ZORA, VPT2
   Ute Becker             : Parallelization
   Giovanni Bistoni       : ED, misc. LED, open-shell LED, HFLED
   Martin Brehm           : Molecular dynamics
   Dmytro Bykov           : SCF Hessian
   Vijay G. Chilkuri      : MRCI spin determinant printing, contributions to CSF-ICE
   Dipayan Datta          : RHF DLPNO-CCSD density
   Achintya Kumar Dutta   : EOM-CC, STEOM-CC
   Dmitry Ganyushin       : Spin-Orbit,Spin-Spin,Magnetic field MRCI
   Miquel Garcia          : C-PCM Hessian, Gaussian charge scheme
   Yang Guo               : DLPNO-NEVPT2, CIM, IAO-localization
   Andreas Hansen         : Spin unrestricted coupled pair/coupled cluster methods
   Benjamin Helmich-Paris : CASSCF linear response (MC-RPA)
   Lee Huntington         : MR-EOM, pCC
   Robert Izsak           : Overlap fitted RIJCOSX, COSX-SCS-MP3, EOM
   Christian Kollmar      : KDIIS, OOCD, Brueckner-CCSD(T), CCSD density
   Simone Kossmann        : Meta GGA functionals, TD-DFT gradient, OOMP2, MP2 Hessian
   Martin Krupicka        : AUTO-CI
   Lucas Lang             : DCDCAS
   Dagmar Lenk            : GEPOL surface, SMD
   Dimitrios Liakos       : Extrapolation schemes; Compound Job, initial MDCI parallelization
   Dimitrios Manganas     : Further ROCIS development; embedding schemes
   Dimitrios Pantazis     : SARC Basis sets
   Taras Petrenko         : DFT Hessian,TD-DFT gradient, ASA, ECA, R-Raman, ABS, FL, XAS/XES, NRVS
   Peter Pinski           : DLPNO-MP2, DLPNO-MP2 Gradient
   Christoph Reimann      : Effective Core Potentials
   Marius Retegan         : Local ZFS, SOC
   Christoph Riplinger    : Optimizer, TS searches, QM/MM, DLPNO-CCSD(T), (RO)-DLPNO pert. Triples
   Tobias Risthaus        : Range-separated hybrids, TD-DFT gradient, RPA, STAB
   Michael Roemelt        : Original ROCIS implementation
   Masaaki Saitow         : Open-shell DLPNO-CCSD energy and density
   Barbara Sandhoefer     : DKH picture change effects
   Avijit Sen             : IP-ROCIS
   Kantharuban Sivalingam : CASSCF convergence, NEVPT2, FIC-MRCI
   Bernardo de Souza      : ESD, SOC TD-DFT
   Georgi Stoychev        : AutoAux, RI-MP2 NMR
   Willem Van den Heuvel  : Paramagnetic NMR
   Boris Wezisla          : Elementary symmetry handling
   Frank Wennmohs         : Technical directorship


 We gratefully acknowledge several colleagues who have allowed us to
 interface, adapt or use parts of their codes:
   Stefan Grimme, W. Hujo, H. Kruse,             : VdW corrections, initial TS optimization,
                  C. Bannwarth                     DFT functionals, gCP, sTDA/sTD-DF
   Ed Valeev, F. Pavosevic, A. Kumar             : LibInt (2-el integral package), F12 methods
   Garnet Chan, S. Sharma, J. Yang, R. Olivares  : DMRG
   Ulf Ekstrom                                   : XCFun DFT Library
   Mihaly Kallay                                 : mrcc  (arbitrary order and MRCC methods)
   Andreas Klamt, Michael Diedenhofen            : otool_cosmo (COSMO solvation model)
   Jiri Pittner, Ondrej Demel                    : Mk-CCSD
   Frank Weinhold                                : gennbo (NPA and NBO analysis)
   Christopher J. Cramer and Donald G. Truhlar   : smd solvation model
   Lars Goerigk                                  : TD-DFT with DH, B97 family of functionals
   V. Asgeirsson, H. Jonsson                     : NEB implementation
   FAccTs GmbH                                   : IRC, NEB, NEB-TS, Multilevel, MM, QM/MM, CI optimization
   S Lehtola, MJT Oliveira, MAL Marques          : LibXC Library


 Your calculation uses the libint2 library for the computation of 2-el integrals
 For citations please refer to: http://libint.valeyev.net

 Your ORCA version has been built with support for libXC version: 4.2.3
 For citations please refer to: https://tddft.org/programs/libxc/

 This ORCA versions uses:
   CBLAS   interface :  Fast vector & matrix operations
   LAPACKE interface :  Fast linear algebra routines
   SCALAPACK package :  Parallel linear algebra routines


Your calculation utilizes the atom-pairwise dispersion correction
with the Becke-Johnson damping scheme (D3BJ)
Cite in your paper:
S.Grimme, S.Ehrlich, L.Goerigk, J Comput Chem, (2011), 32, 1456–1465 
S.Grimme, J.Antony, S.Ehrlich and H.Krieg, J.Chem.Phys., 132, (2010), 154104 
   

----- Orbital basis set information -----
Your calculation utilizes the basis: def2-TZVPPD
   F. Weigend and R. Ahlrichs, Phys. Chem. Chem. Phys. 7, 3297 (2005).
   D. Rappoport and F. Furche, J. Chem. Phys. 133 134105 (2010).

----- AuxJ basis set information -----
Your calculation utilizes the auxiliary basis: def2/J
   F. Weigend, Phys. Chem. Chem. Phys. 8, 1057 (2006).

================================================================================
                                        WARNINGS
                       Please study these warnings very carefully!
================================================================================


WARNING: your system is open-shell and RHF/RKS was chosen
  ===> : WILL SWITCH to UHF/UKS


INFO   : the flag for use of LIBINT has been found!

================================================================================
                                       INPUT FILE
================================================================================
NAME = TMD16_VO.in
|  1> #
|  2> # TMD16_VO TPSS-D3BJ/Def2-TZVPPD
|  3> #
|  4> ! tpss d3bj def2-tzvppd def2/j grid4 nofinalgrid
|  5> 
|  6> *xyz 0 4
|  7> V        0.000000    0.000000    0.412903 
|  8> O        0.000000    0.000000   -1.187097 
|  9> *
| 10> 
| 11> %maxcore 5000
| 12> 
| 13> %pal
| 14> nprocs = 24
| 15> end
| 16> 
| 17> 
| 18>                          ****END OF INPUT****
================================================================================

                       ****************************
                       * Single Point Calculation *
                       ****************************

---------------------------------
CARTESIAN COORDINATES (ANGSTROEM)
---------------------------------
  V      0.000000    0.000000    0.412903
  O      0.000000    0.000000   -1.187097

----------------------------
CARTESIAN COORDINATES (A.U.)
----------------------------
  NO LB      ZA    FRAG     MASS         X           Y           Z
   0 V    23.0000    0    50.940    0.000000    0.000000    0.780274
   1 O     8.0000    0    15.999    0.000000    0.000000   -2.243288

--------------------------------
INTERNAL COORDINATES (ANGSTROEM)
--------------------------------
 V      0   0   0     0.000000000000     0.00000000     0.00000000
 O      1   0   0     1.600000000000     0.00000000     0.00000000

---------------------------
INTERNAL COORDINATES (A.U.)
---------------------------
 V      0   0   0     0.000000000000     0.00000000     0.00000000
 O      1   0   0     3.023561814274     0.00000000     0.00000000

---------------------
BASIS SET INFORMATION
---------------------
There are 2 groups of distinct atoms

 Group   1 Type V   : 17s13p7d2f1g contracted to 6s6p4d2f1g pattern {842111/631111/4111/11/1}
 Group   2 Type O   : 12s7p3d1f contracted to 6s4p3d1f pattern {621111/4111/111/1}

Atom   0V    basis set group =>   1
Atom   1O    basis set group =>   2
---------------------------------
AUXILIARY/J BASIS SET INFORMATION
---------------------------------
There are 2 groups of distinct atoms

 Group   1 Type V   : 19s5p5d3f3g contracted to 8s5p5d2f3g pattern {121111111/11111/11111/21/111}
 Group   2 Type O   : 12s5p4d2f1g contracted to 6s4p3d1f1g pattern {711111/2111/211/2/1}

Atom   0V    basis set group =>   1
Atom   1O    basis set group =>   2


           ************************************************************
           *        Program running with 24 parallel MPI-processes    *
           *              working on a common directory               *
           ************************************************************
------------------------------------------------------------------------------
                           ORCA GTO INTEGRAL CALCULATION
                           -- RI-GTO INTEGRALS CHOSEN --
------------------------------------------------------------------------------

                         BASIS SET STATISTICS AND STARTUP INFO

Gaussian basis set:
 # of primitive gaussian shells          ...   63
 # of primitive gaussian functions       ...  169
 # of contracted shells                  ...   33
 # of contracted basis functions         ...  107
 Highest angular momentum                ...    4
 Maximum contraction depth               ...    8
Auxiliary gaussian basis set:
 # of primitive gaussian shells          ...   59
 # of primitive gaussian functions       ...  177
 # of contracted shells                  ...   38
 # of contracted aux-basis functions     ...  138
 Highest angular momentum                ...    4
 Maximum contraction depth               ...   12
Ratio of auxiliary to basis functions    ...  1.29
Integral package used                  ... LIBINT
 One Electron integrals                  ... done
 Ordering auxiliary basis shells         ... done
 Integral threshhold             Thresh  ...  1.000e-10
 Primitive cut-off               TCut    ...  1.000e-11
 Pre-screening matrix                    ... done
 Shell pair data                         ... 
 Ordering of the shell pairs             ... done (   0.000 sec) 557 of 561 pairs
 Determination of significant pairs      ... done (   0.000 sec)
 Creation of shell pair data             ... done (   0.000 sec)
 Storage of shell pair data              ... done (   0.020 sec)
 Shell pair data done in (   0.021 sec)
 Computing two index integrals           ... done
 Cholesky decomposition of the V-matrix  ... done


Timings:
 Total evaluation time                   ...   0.189 sec (  0.003 min)
 One electron matrix time                ...   0.030 sec (  0.000 min) = 15.6%
 Schwartz matrix evaluation time         ...   0.113 sec (  0.002 min) = 59.7%
 Two index repulsion integral time       ...   0.001 sec (  0.000 min) =  0.3%
 Cholesky decomposition of V             ...   0.001 sec (  0.000 min) =  0.5%
 Three index repulsion integral time     ...   0.000 sec (  0.000 min) =  0.0%



           ************************************************************
           *        Program running with 24 parallel MPI-processes    *
           *              working on a common directory               *
           ************************************************************
-------------------------------------------------------------------------------
                                 ORCA SCF
-------------------------------------------------------------------------------

------------
SCF SETTINGS
------------
Hamiltonian:
 Density Functional     Method          .... DFT(GTOs)
 Exchange Functional    Exchange        .... TPSS
 Correlation Functional Correlation     .... TPSS
 LDA part of GGA corr.  LDAOpt          .... PW91-LDA
 Gradients option       PostSCFGGA      .... off
   Density functional embedding theory  .... OFF
   NL short-range parameter             ....  5.000000
 RI-approximation to the Coulomb term is turned on
   Number of auxiliary basis functions  .... 138


General Settings:
 Integral files         IntName         .... TMD16_VO
 Hartree-Fock type      HFTyp           .... UHF
 Total Charge           Charge          ....    0
 Multiplicity           Mult            ....    4
 Number of Electrons    NEL             ....   31
 Basis Dimension        Dim             ....  107
 Nuclear Repulsion      ENuc            ....     60.8553789545 Eh

Convergence Acceleration:
 DIIS                   CNVDIIS         .... on
   Start iteration      DIISMaxIt       ....    12
   Startup error        DIISStart       ....  0.200000
   # of expansion vecs  DIISMaxEq       ....     5
   Bias factor          DIISBfac        ....   1.050
   Max. coefficient     DIISMaxC        ....  10.000
 Newton-Raphson         CNVNR           .... off
 SOSCF                  CNVSOSCF        .... off
 Level Shifting         CNVShift        .... on
   Level shift para.    LevelShift      ....    0.2500
   Turn off err/grad.   ShiftErr        ....    0.0010
 Zerner damping         CNVZerner       .... off
 Static damping         CNVDamp         .... on
   Fraction old density DampFac         ....    0.7000
   Max. Damping (<1)    DampMax         ....    0.9800
   Min. Damping (>=0)   DampMin         ....    0.0000
   Turn off err/grad.   DampErr         ....    0.1000
 Fernandez-Rico         CNVRico         .... off

SCF Procedure:
 Maximum # iterations   MaxIter         ....   125
 SCF integral mode      SCFMode         .... Direct
   Integral package                     .... LIBINT
 Reset frequency        DirectResetFreq ....    20
 Integral Threshold     Thresh          ....  1.000e-10 Eh
 Primitive CutOff       TCut            ....  1.000e-11 Eh

Convergence Tolerance:
 Convergence Check Mode ConvCheckMode   .... Total+1el-Energy
 Convergence forced     ConvForced      .... 0
 Energy Change          TolE            ....  1.000e-06 Eh
 1-El. energy change                    ....  1.000e-03 Eh
 DIIS Error             TolErr          ....  1.000e-06


Diagonalization of the overlap matrix:
Smallest eigenvalue                        ... 6.199e-04
Time for diagonalization                   ...    0.003 sec
Threshold for overlap eigenvalues          ... 1.000e-08
Number of eigenvalues below threshold      ... 0
Time for construction of square roots      ...    0.002 sec
Total time needed                          ...    0.005 sec

-------------------
DFT GRID GENERATION
-------------------

General Integration Accuracy     IntAcc      ...  4.670
Radial Grid Type                 RadialGrid  ... Gauss-Chebyshev
Angular Grid (max. acc.)         AngularGrid ... Lebedev-302
Angular grid pruning method      GridPruning ... 3 (G Style)
Weight generation scheme         WeightScheme... Becke
Basis function cutoff            BFCut       ...    1.0000e-10
Integration weight cutoff        WCut        ...    1.0000e-14
Grids for H and He will be reduced by one unit

# of grid points (after initial pruning)     ...  15876 (   0.0 sec)
# of grid points (after weights+screening)   ...  15834 (   0.0 sec)
nearest neighbour list constructed           ...    0.0 sec
Grid point re-assignment to atoms done       ...    0.0 sec
Grid point division into batches done        ...    0.1 sec
Reduced shell lists constructed in    0.1 sec

Total number of grid points                  ...    15834
Total number of batches                      ...      249
Average number of points per batch           ...       63
Average number of grid points per atom       ...     7917
Average number of shells per batch           ...     7.42 (22.47%)
Average number of basis functions per batch  ...    19.92 (18.61%)
Average number of large shells per batch     ...     5.00 (67.42%)
Average number of large basis fcns per batch ...    14.67 (73.64%)
Maximum spatial batch extension              ...  28.57, 31.41, 18.15 au
Average spatial batch extension              ...   0.89,  0.96,  0.67 au

Time for grid setup =    0.146 sec

------------------------------
INITIAL GUESS: MODEL POTENTIAL
------------------------------
Loading Hartree-Fock densities                     ... done
Calculating cut-offs                               ... done
Setting up the integral package                    ... done
Initializing the effective Hamiltonian             ... done
Starting the Coulomb interaction                   ... done (   0.0 sec)
Reading the grid                                   ... done
Mapping shells                                     ... done
Starting the XC term evaluation                    ... done (   0.0 sec)
  promolecular density results
     # of electrons  =     30.999998857
     EX              =    -52.057967716
     EC              =     -1.219684963
     EX+EC           =    -53.277652679
Transforming the Hamiltonian                       ... done (   0.0 sec)
Diagonalizing the Hamiltonian                      ... done (   0.0 sec)
Back transforming the eigenvectors                 ... done (   0.0 sec)
Now organizing SCF variables                       ... done
                      ------------------
                      INITIAL GUESS DONE (   0.2 sec)
                      ------------------
--------------
SCF ITERATIONS
--------------
ITER       Energy         Delta-E        Max-DP      RMS-DP      [F,P]     Damp
               ***  Starting incremental Fock matrix formation  ***
  0  -1018.9919684913   0.000000000000 0.07095518  0.00237330  0.4475873 0.7000
  1  -1019.0041549472  -0.012186455944 0.03531983  0.00103940  0.2320679 0.7000
                               ***Turning on DIIS***
  2  -1019.1325024560  -0.128347508814 0.09453136  0.00205217  0.0763977 0.0000
  3  -1019.0731723103   0.059330145678 0.00934738  0.00025942  0.3833205 0.7000
  4  -1019.1192828945  -0.046110584137 0.00969221  0.00027085  0.3425819 0.7000
  5  -1019.1636175732  -0.044334678758 0.00915598  0.00024873  0.2966050 0.7000
  6  -1019.1993655433  -0.035747970024 0.01013619  0.00021473  0.2526219 0.7000
  7  -1019.2253370934  -0.025971550166 0.01441882  0.00034229  0.2149729 0.7000
  8  -1019.2571802070  -0.031843113559 0.01384265  0.00027229  0.1511585 0.7000
  9  -1019.2743964980  -0.017216291020 0.01142159  0.00019562  0.1025375 0.7000
 10  -1019.2828444260  -0.008447928022 0.02905397  0.00046747  0.0699309 0.0000
 11  -1019.2932368725  -0.010392446495 0.00268273  0.00004090  0.0037146 0.0000
 12  -1019.2932690678  -0.000032195317 0.00111347  0.00001977  0.0026093 0.0000
 13  -1019.2932827224  -0.000013654586 0.00038740  0.00001374  0.0017891 0.0000
 14  -1019.2932913673  -0.000008644883 0.00033523  0.00001052  0.0011139 0.0000
 15  -1019.2932959254  -0.000004558034 0.00045110  0.00001628  0.0005586 0.0000
 16  -1019.2932989722  -0.000003046869 0.00020633  0.00000389  0.0001280 0.0000
 17  -1019.2932990143  -0.000000042086 0.00003187  0.00000080  0.0000230 0.0000
                 **** Energy Check signals convergence ****

               *****************************************************
               *                     SUCCESS                       *
               *           SCF CONVERGED AFTER  18 CYCLES          *
               *****************************************************


----------------
TOTAL SCF ENERGY
----------------

Total Energy       :        -1019.29329893 Eh          -27736.38075 eV

Components:
Nuclear Repulsion  :           60.85537895 Eh            1655.95905 eV
Electronic Energy  :        -1080.14867788 Eh          -29392.33980 eV
One Electron Energy:        -1521.26705828 Eh          -41395.78118 eV
Two Electron Energy:          441.11838040 Eh           12003.44137 eV

Virial components:
Potential Energy   :        -2036.63386562 Eh          -55419.62496 eV
Kinetic Energy     :         1017.34056669 Eh           27683.24421 eV
Virial Ratio       :            2.00191945


DFT components:
N(Alpha)           :       16.999997700743 electrons
N(Beta)            :       13.999997787825 electrons
N(Total)           :       30.999995488569 electrons
E(X)               :      -52.685185521702 Eh       
E(C)               :       -1.226903855070 Eh       
E(XC)              :      -53.912089376772 Eh       
DFET-embed. en.    :        0.000000000000 Eh       

---------------
SCF CONVERGENCE
---------------

  Last Energy change         ...    8.7623e-08  Tolerance :   1.0000e-06
  Last MAX-Density change    ...    2.6608e-05  Tolerance :   1.0000e-05
  Last RMS-Density change    ...    4.8345e-07  Tolerance :   1.0000e-06
  Last DIIS Error            ...    2.0460e-05  Tolerance :   1.0000e-06

             **** THE GBW FILE WAS UPDATED (TMD16_VO.gbw) ****
             **** DENSITY FILE WAS UPDATED (TMD16_VO.scfp) ****
             **** ENERGY FILE WAS UPDATED (TMD16_VO.en.tmp) ****
----------------------
UHF SPIN CONTAMINATION
----------------------

Warning: in a DFT calculation there is little theoretical justification to 
         calculate <S**2> as in Hartree-Fock theory. We will do it anyways
         but you should keep in mind that the values have only limited relevance

Expectation value of <S**2>     :     3.796545
Ideal value S*(S+1) for S=1.5   :     3.750000
Deviation                       :     0.046545

             **** THE GBW FILE WAS UPDATED (TMD16_VO.gbw) ****
             **** DENSITY FILE WAS UPDATED (TMD16_VO.scfp) ****
----------------
ORBITAL ENERGIES
----------------
                 SPIN UP ORBITALS
  NO   OCC          E(Eh)            E(eV) 
   0   1.0000    -196.127131     -5336.8905 
   1   1.0000     -21.900477      -595.9423 
   2   1.0000     -18.874523      -513.6019 
   3   1.0000     -18.424441      -501.3545 
   4   1.0000     -18.413302      -501.0514 
   5   1.0000     -18.413302      -501.0514 
   6   1.0000      -2.529604       -68.8340 
   7   1.0000      -1.605125       -43.6777 
   8   1.0000      -1.583282       -43.0833 
   9   1.0000      -1.583282       -43.0833 
  10   1.0000      -0.808156       -21.9911 
  11   1.0000      -0.303392        -8.2557 
  12   1.0000      -0.289798        -7.8858 
  13   1.0000      -0.289798        -7.8858 
  14   1.0000      -0.168948        -4.5973 
  15   1.0000      -0.163633        -4.4527 
  16   1.0000      -0.163633        -4.4527 
  17   0.0000      -0.113064        -3.0766 
  18   0.0000      -0.113064        -3.0766 
  19   0.0000      -0.083810        -2.2806 
  20   0.0000      -0.021992        -0.5984 
  21   0.0000      -0.021992        -0.5984 
  22   0.0000       0.018856         0.5131 
  23   0.0000       0.032679         0.8892 
  24   0.0000       0.064883         1.7656 
  25   0.0000       0.064883         1.7656 
  26   0.0000       0.103612         2.8194 
  27   0.0000       0.107715         2.9311 
  28   0.0000       0.107715         2.9311 
  29   0.0000       0.109455         2.9784 
  30   0.0000       0.109455         2.9784 
  31   0.0000       0.151853         4.1321 
  32   0.0000       0.176415         4.8005 
  33   0.0000       0.176415         4.8005 
  34   0.0000       0.188651         5.1335 
  35   0.0000       0.269445         7.3320 
  36   0.0000       0.360831         9.8187 
  37   0.0000       0.360831         9.8187 
  38   0.0000       0.406576        11.0635 
  39   0.0000       0.406578        11.0635 
  40   0.0000       0.409392        11.1401 
  41   0.0000       0.528373        14.3778 
  42   0.0000       0.529873        14.4186 
  43   0.0000       0.529873        14.4186 
  44   0.0000       0.576340        15.6830 
  45   0.0000       0.576340        15.6830 
  46   0.0000       0.625877        17.0310 
  47   0.0000       0.625877        17.0310 
  48   0.0000       0.699096        19.0234 
  49   0.0000       0.746849        20.3228 
  50   0.0000       0.746849        20.3228 
  51   0.0000       0.799262        21.7490 
  52   0.0000       0.831920        22.6377 
  53   0.0000       1.066218        29.0133 
  54   0.0000       1.066218        29.0133 
  55   0.0000       1.147943        31.2371 
  56   0.0000       1.147947        31.2372 
  57   0.0000       1.279908        34.8281 
  58   0.0000       1.279908        34.8281 
  59   0.0000       1.542123        41.9633 
  60   0.0000       1.669545        45.4306 
  61   0.0000       1.672968        45.5238 
  62   0.0000       1.672968        45.5238 
  63   0.0000       1.719360        46.7862 
  64   0.0000       1.719373        46.7865 
  65   0.0000       1.864736        50.7420 
  66   0.0000       2.000188        54.4279 
  67   0.0000       2.000188        54.4279 
  68   0.0000       2.339576        63.6631 
  69   0.0000       2.339579        63.6632 
  70   0.0000       2.395419        65.1827 
  71   0.0000       2.420367        65.8615 
  72   0.0000       2.420367        65.8615 
  73   0.0000       2.634174        71.6795 
  74   0.0000       2.776656        75.5567 
  75   0.0000       2.776656        75.5567 
  76   0.0000       3.022892        82.2571 
  77   0.0000       3.849293       104.7446 
  78   0.0000       4.008188       109.0683 
  79   0.0000       4.008198       109.0686 
  80   0.0000       4.057599       110.4129 
  81   0.0000       4.057599       110.4129 
  82   0.0000       4.060452       110.4905 
  83   0.0000       4.060472       110.4910 
  84   0.0000       4.145707       112.8104 
  85   0.0000       4.145707       112.8104 
  86   0.0000       4.400026       119.7308 
  87   0.0000       4.499739       122.4441 
  88   0.0000       4.499739       122.4441 
  89   0.0000       4.526942       123.1844 
  90   0.0000       4.526943       123.1844 
  91   0.0000       4.676567       127.2559 
  92   0.0000       4.698749       127.8595 
  93   0.0000       4.698749       127.8595 
  94   0.0000       5.157846       140.3521 
  95   0.0000       5.157846       140.3521 
  96   0.0000       5.359619       145.8426 
  97   0.0000       5.359650       145.8435 
  98   0.0000       5.834461       158.7638 
  99   0.0000       5.834461       158.7638 
 100   0.0000       6.281830       170.9373 
 101   0.0000       6.374380       173.4557 
 102   0.0000       6.374676       173.4637 
 103   0.0000       6.760653       183.9667 
 104   0.0000       6.760653       183.9667 
 105   0.0000       7.132492       194.0850 
 106   0.0000      43.559339      1185.3099 

                 SPIN DOWN ORBITALS
  NO   OCC          E(Eh)            E(eV) 
   0   1.0000    -196.126406     -5336.8708 
   1   1.0000     -21.874186      -595.2269 
   2   1.0000     -18.882309      -513.8137 
   3   1.0000     -18.412969      -501.0423 
   4   1.0000     -18.387138      -500.3395 
   5   1.0000     -18.387138      -500.3395 
   6   1.0000      -2.449658       -66.6586 
   7   1.0000      -1.560706       -42.4690 
   8   1.0000      -1.482312       -40.3358 
   9   1.0000      -1.482312       -40.3358 
  10   1.0000      -0.821374       -22.3507 
  11   1.0000      -0.296467        -8.0673 
  12   1.0000      -0.291537        -7.9331 
  13   1.0000      -0.291537        -7.9331 
  14   0.0000      -0.102498        -2.7891 
  15   0.0000      -0.066023        -1.7966 
  16   0.0000      -0.066023        -1.7966 
  17   0.0000      -0.056867        -1.5474 
  18   0.0000      -0.056822        -1.5462 
  19   0.0000      -0.044236        -1.2037 
  20   0.0000       0.019244         0.5236 
  21   0.0000       0.019244         0.5236 
  22   0.0000       0.035426         0.9640 
  23   0.0000       0.063916         1.7392 
  24   0.0000       0.101252         2.7552 
  25   0.0000       0.101253         2.7552 
  26   0.0000       0.120859         3.2888 
  27   0.0000       0.120859         3.2888 
  28   0.0000       0.124727         3.3940 
  29   0.0000       0.155693         4.2366 
  30   0.0000       0.156012         4.2453 
  31   0.0000       0.174497         4.7483 
  32   0.0000       0.199918         5.4401 
  33   0.0000       0.199918         5.4401 
  34   0.0000       0.208814         5.6821 
  35   0.0000       0.295689         8.0461 
  36   0.0000       0.409818        11.1517 
  37   0.0000       0.409818        11.1517 
  38   0.0000       0.413315        11.2469 
  39   0.0000       0.413368        11.2483 
  40   0.0000       0.434061        11.8114 
  41   0.0000       0.531822        14.4716 
  42   0.0000       0.531822        14.4716 
  43   0.0000       0.553820        15.0702 
  44   0.0000       0.641844        17.4655 
  45   0.0000       0.641883        17.4665 
  46   0.0000       0.651526        17.7289 
  47   0.0000       0.651526        17.7289 
  48   0.0000       0.726802        19.7773 
  49   0.0000       0.768751        20.9188 
  50   0.0000       0.768751        20.9188 
  51   0.0000       0.808625        22.0038 
  52   0.0000       0.842538        22.9266 
  53   0.0000       1.151509        31.3341 
  54   0.0000       1.151509        31.3341 
  55   0.0000       1.196301        32.5530 
  56   0.0000       1.196301        32.5530 
  57   0.0000       1.299837        35.3704 
  58   0.0000       1.299837        35.3704 
  59   0.0000       1.575522        42.8721 
  60   0.0000       1.691054        46.0159 
  61   0.0000       1.714010        46.6406 
  62   0.0000       1.714020        46.6409 
  63   0.0000       1.755675        47.7744 
  64   0.0000       1.755675        47.7744 
  65   0.0000       1.894655        51.5562 
  66   0.0000       2.009182        54.6726 
  67   0.0000       2.009182        54.6726 
  68   0.0000       2.432258        66.1851 
  69   0.0000       2.432307        66.1864 
  70   0.0000       2.452124        66.7257 
  71   0.0000       2.452124        66.7257 
  72   0.0000       2.473951        67.3196 
  73   0.0000       2.647222        72.0346 
  74   0.0000       2.782421        75.7135 
  75   0.0000       2.782421        75.7135 
  76   0.0000       3.013089        81.9903 
  77   0.0000       3.880453       105.5925 
  78   0.0000       4.053410       110.2989 
  79   0.0000       4.053419       110.2991 
  80   0.0000       4.123509       112.2064 
  81   0.0000       4.123509       112.2064 
  82   0.0000       4.155549       113.0782 
  83   0.0000       4.155570       113.0788 
  84   0.0000       4.182917       113.8230 
  85   0.0000       4.182917       113.8230 
  86   0.0000       4.418567       120.2353 
  87   0.0000       4.602082       125.2290 
  88   0.0000       4.602086       125.2291 
  89   0.0000       4.618503       125.6758 
  90   0.0000       4.618503       125.6758 
  91   0.0000       4.742220       129.0424 
  92   0.0000       4.766703       129.7086 
  93   0.0000       4.766703       129.7086 
  94   0.0000       5.142863       139.9444 
  95   0.0000       5.142863       139.9444 
  96   0.0000       5.355518       145.7311 
  97   0.0000       5.355549       145.7319 
  98   0.0000       5.833245       158.7307 
  99   0.0000       5.833245       158.7307 
 100   0.0000       6.283010       170.9694 
 101   0.0000       6.351389       172.8301 
 102   0.0000       6.351696       172.8384 
 103   0.0000       6.746468       183.5807 
 104   0.0000       6.746468       183.5807 
 105   0.0000       7.127851       193.9587 
 106   0.0000      43.549677      1185.0470 

                    ********************************
                    * MULLIKEN POPULATION ANALYSIS *
                    ********************************

--------------------------------------------
MULLIKEN ATOMIC CHARGES AND SPIN POPULATIONS
--------------------------------------------
   0 V :    0.636467    3.221636
   1 O :   -0.636467   -0.221636
Sum of atomic charges         :   -0.0000000
Sum of atomic spin populations:    3.0000000

-----------------------------------------------------
MULLIKEN REDUCED ORBITAL CHARGES AND SPIN POPULATIONS
-----------------------------------------------------
CHARGE
  0 V s       :     6.613432  s :     6.613432
      pz      :     4.063490  p :    12.110123
      px      :     4.023316
      py      :     4.023316
      dz2     :     0.728110  d :     3.611298
      dxz     :     0.440199
      dyz     :     0.440199
      dx2y2   :     1.001396
      dxy     :     1.001396
      f0      :     0.006291  f :     0.026413
      f+1     :     0.009994
      f-1     :     0.009994
      f+2     :     0.000067
      f-2     :     0.000067
      f+3     :     0.000000
      f-3     :     0.000000
      g0      :     0.000918  g :     0.002266
      g+1     :     0.000674
      g-1     :     0.000674
      g+2     :     0.000000
      g-2     :     0.000000
      g+3     :     0.000000
      g-3     :     0.000000
      g+4     :     0.000000
      g-4     :     0.000000
  1 O s       :     4.063540  s :     4.063540
      pz      :     1.510410  p :     4.550027
      px      :     1.519808
      py      :     1.519808
      dz2     :     0.013073  d :     0.021398
      dxz     :     0.005674
      dyz     :     0.005674
      dx2y2   :    -0.001512
      dxy     :    -0.001512
      f0      :     0.000735  f :     0.001503
      f+1     :     0.000335
      f-1     :     0.000335
      f+2     :     0.000049
      f-2     :     0.000049
      f+3     :     0.000000
      f-3     :     0.000000

SPIN
  0 V s       :     0.623002  s :     0.623002
      pz      :     0.070049  p :     0.081427
      px      :     0.005689
      py      :     0.005689
      dz2     :     0.289666  d :     2.518923
      dxz     :     0.113233
      dyz     :     0.113233
      dx2y2   :     1.001396
      dxy     :     1.001396
      f0      :    -0.000246  f :    -0.001193
      f+1     :    -0.000540
      f-1     :    -0.000540
      f+2     :     0.000067
      f-2     :     0.000067
      f+3     :    -0.000000
      f-3     :    -0.000000
      g0      :    -0.000164  g :    -0.000524
      g+1     :    -0.000180
      g-1     :    -0.000180
      g+2     :     0.000000
      g-2     :     0.000000
      g+3     :    -0.000000
      g-3     :    -0.000000
      g+4     :     0.000000
      g-4     :     0.000000
  1 O s       :     0.050742  s :     0.050742
      pz      :    -0.036093  p :    -0.273518
      px      :    -0.118712
      py      :    -0.118712
      dz2     :     0.002944  d :     0.000867
      dxz     :     0.000474
      dyz     :     0.000474
      dx2y2   :    -0.001512
      dxy     :    -0.001512
      f0      :     0.000099  f :     0.000272
      f+1     :     0.000037
      f-1     :     0.000037
      f+2     :     0.000049
      f-2     :     0.000049
      f+3     :    -0.000000
      f-3     :    -0.000000


                     *******************************
                     * LOEWDIN POPULATION ANALYSIS *
                     *******************************

-------------------------------------------
LOEWDIN ATOMIC CHARGES AND SPIN POPULATIONS
-------------------------------------------
   0 V :    0.367050    3.053218
   1 O :   -0.367050   -0.053218

----------------------------------------------------
LOEWDIN REDUCED ORBITAL CHARGES AND SPIN POPULATIONS
----------------------------------------------------
CHARGE
  0 V s       :     6.439531  s :     6.439531
      pz      :     4.189796  p :    12.233055
      px      :     4.021630
      py      :     4.021630
      dz2     :     0.876070  d :     3.835325
      dxz     :     0.489424
      dyz     :     0.489424
      dx2y2   :     0.990203
      dxy     :     0.990203
      f0      :     0.052837  f :     0.115834
      f+1     :     0.031295
      f-1     :     0.031295
      f+2     :     0.000203
      f-2     :     0.000203
      f+3     :     0.000000
      f-3     :     0.000000
      g0      :     0.005039  g :     0.009205
      g+1     :     0.002080
      g-1     :     0.002080
      g+2     :     0.000003
      g-2     :     0.000003
      g+3     :     0.000000
      g-3     :     0.000000
      g+4     :     0.000000
      g-4     :     0.000000
  1 O s       :     3.701345  s :     3.701345
      pz      :     1.616300  p :     4.483182
      px      :     1.433441
      py      :     1.433441
      dz2     :     0.115513  d :     0.177744
      dxz     :     0.021680
      dyz     :     0.021680
      dx2y2   :     0.009436
      dxy     :     0.009436
      f0      :     0.003569  f :     0.004779
      f+1     :     0.000450
      f-1     :     0.000450
      f+2     :     0.000155
      f-2     :     0.000155
      f+3     :     0.000000
      f-3     :     0.000000

SPIN
  0 V s       :     0.536059  s :     0.536059
      pz      :     0.072321  p :     0.071616
      px      :    -0.000353
      py      :    -0.000353
      dz2     :     0.275415  d :     2.455919
      dxz     :     0.100049
      dyz     :     0.100049
      dx2y2   :     0.990203
      dxy     :     0.990203
      f0      :    -0.001784  f :    -0.009171
      f+1     :    -0.003896
      f-1     :    -0.003896
      f+2     :     0.000203
      f-2     :     0.000203
      f+3     :    -0.000000
      f-3     :    -0.000000
      g0      :    -0.000474  g :    -0.001206
      g+1     :    -0.000368
      g-1     :    -0.000368
      g+2     :     0.000003
      g-2     :     0.000003
      g+3     :    -0.000000
      g-3     :    -0.000000
      g+4     :     0.000000
      g-4     :     0.000000
  1 O s       :     0.075122  s :     0.075122
      pz      :     0.038763  p :    -0.155707
      px      :    -0.097235
      py      :    -0.097235
      dz2     :     0.004132  d :     0.026451
      dxz     :     0.001723
      dyz     :     0.001723
      dx2y2   :     0.009436
      dxy     :     0.009436
      f0      :     0.000444  f :     0.000916
      f+1     :     0.000081
      f-1     :     0.000081
      f+2     :     0.000155
      f-2     :     0.000155
      f+3     :    -0.000000
      f-3     :    -0.000000


                      *****************************
                      * MAYER POPULATION ANALYSIS *
                      *****************************

  NA   - Mulliken gross atomic population
  ZA   - Total nuclear charge
  QA   - Mulliken gross atomic charge
  VA   - Mayer's total valence
  BVA  - Mayer's bonded valence
  FA   - Mayer's free valence

  ATOM       NA         ZA         QA         VA         BVA        FA
  0 V     22.3635    23.0000     0.6365     5.1934     2.3720     2.8214
  1 O      8.6365     8.0000    -0.6365     2.4173     2.3720     0.0453

  Mayer bond orders larger than 0.100000
B(  0-V ,  1-O ) :   2.3720 

-------
TIMINGS
-------

Total SCF time: 0 days 0 hours 0 min 2 sec 

Total time                  ....       2.482 sec
Sum of individual times     ....       2.368 sec  ( 95.4%)

Fock matrix formation       ....       2.046 sec  ( 82.4%)
  Split-RI-J                ....       1.340 sec  ( 65.5% of F)
  XC integration            ....       0.635 sec  ( 31.1% of F)
    Basis function eval.    ....       0.027 sec  (  4.3% of XC)
    Density eval.           ....       0.062 sec  (  9.8% of XC)
    XC-Functional eval.     ....       0.025 sec  (  3.9% of XC)
    XC-Potential eval.      ....       0.161 sec  ( 25.3% of XC)
Diagonalization             ....       0.055 sec  (  2.2%)
Density matrix formation    ....       0.009 sec  (  0.4%)
Population analysis         ....       0.005 sec  (  0.2%)
Initial guess               ....       0.083 sec  (  3.4%)
Orbital Transformation      ....       0.000 sec  (  0.0%)
Orbital Orthonormalization  ....       0.000 sec  (  0.0%)
DIIS solution               ....       0.023 sec  (  0.9%)
Grid generation             ....       0.146 sec  (  5.9%)


-------------------------------------------------------------------------------
                          DFT DISPERSION CORRECTION                            
                                                                               
                              DFTD3 V3.1  Rev 1                                
                          USING Becke-Johnson damping                          
-------------------------------------------------------------------------------
The TPSS functional is recognized
Active option DFTDOPT                   ...         4   

molecular C6(AA) [au] = 648.885312 


            DFT-D V3
 parameters
 s6 scaling factor         :     1.0000 
 a1 scaling factor         :     0.4535 
 s8 scaling factor         :     1.9435 
 a2 scaling factor         :     4.4752 
 ad hoc parameters k1-k3   :    16.0000     1.3333    -4.0000 

 Edisp/kcal,au: -0.565520739328  -0.000901214567 
 E6   /kcal   :  -0.217585844 
 E8   /kcal   :  -0.347934895 
 % E8         :  61.524692336 

-------------------------   ----------------
Dispersion correction           -0.000901215
-------------------------   ----------------


-------------------------   --------------------
FINAL SINGLE POINT ENERGY     -1019.294200141249
-------------------------   --------------------


                            ***************************************
                            *     ORCA property calculations      *
                            ***************************************

                                    ---------------------
                                    Active property flags
                                    ---------------------
   (+) Dipole Moment


------------------------------------------------------------------------------
                       ORCA ELECTRIC PROPERTIES CALCULATION
------------------------------------------------------------------------------

Dipole Moment Calculation                       ... on
Quadrupole Moment Calculation                   ... off
Polarizability Calculation                      ... off
GBWName                                         ... TMD16_VO.gbw
Electron density file                           ... TMD16_VO.scfp
The origin for moment calculation is the CENTER OF MASS  = ( 0.000000,  0.000000  0.057616)

-------------
DIPOLE MOMENT
-------------
                                X             Y             Z
Electronic contribution:      0.00000      -0.00000       3.19781
Nuclear contribution   :      0.00000       0.00000      -1.78611
                        -----------------------------------------
Total Dipole Moment    :      0.00000      -0.00000       1.41170
                        -----------------------------------------
Magnitude (a.u.)       :      1.41170
Magnitude (Debye)      :      3.58826



--------------------
Rotational spectrum 
--------------------
 
Rotational constants in cm-1:     0.000000     0.540859     0.540859 
Rotational constants in MHz :     0.000000 16214.556702 16214.556702 

 Dipole components along the rotational axes: 
x,y,z [a.u.] :     1.411700    -0.000000     0.000000 
x,y,z [Debye]:     3.588256    -0.000000     0.000000 

 

Timings for individual modules:

Sum of individual times         ...        3.354 sec (=   0.056 min)
GTO integral calculation        ...        0.538 sec (=   0.009 min)  16.1 %
SCF iterations                  ...        2.815 sec (=   0.047 min)  83.9 %
                             ****ORCA TERMINATED NORMALLY****
TOTAL RUN TIME: 0 days 0 hours 0 minutes 3 seconds 837 msec
