
                                 *****************
                                 * O   R   C   A *
                                 *****************

           --- An Ab Initio, DFT and Semiempirical electronic structure package ---

                  #######################################################
                  #                        -***-                        #
                  #          Department of theory and spectroscopy      #
                  #               Directorship: Frank Neese             #
                  #        Max Planck Institute fuer Kohlenforschung    #
                  #                Kaiser Wilhelm Platz 1               #
                  #                 D-45470 Muelheim/Ruhr               #
                  #                      Germany                        #
                  #                                                     #
                  #                  All rights reserved                #
                  #                        -***-                        #
                  #######################################################


                         Program Version 4.2.0 -  RELEASE  -


 With contributions from (in alphabetic order):
   Daniel Aravena         : Magnetic Suceptibility
   Michael Atanasov       : Ab Initio Ligand Field Theory (pilot matlab implementation)
   Alexander A. Auer      : GIAO ZORA, VPT2
   Ute Becker             : Parallelization
   Giovanni Bistoni       : ED, misc. LED, open-shell LED, HFLED
   Martin Brehm           : Molecular dynamics
   Dmytro Bykov           : SCF Hessian
   Vijay G. Chilkuri      : MRCI spin determinant printing, contributions to CSF-ICE
   Dipayan Datta          : RHF DLPNO-CCSD density
   Achintya Kumar Dutta   : EOM-CC, STEOM-CC
   Dmitry Ganyushin       : Spin-Orbit,Spin-Spin,Magnetic field MRCI
   Miquel Garcia          : C-PCM Hessian, Gaussian charge scheme
   Yang Guo               : DLPNO-NEVPT2, CIM, IAO-localization
   Andreas Hansen         : Spin unrestricted coupled pair/coupled cluster methods
   Benjamin Helmich-Paris : CASSCF linear response (MC-RPA)
   Lee Huntington         : MR-EOM, pCC
   Robert Izsak           : Overlap fitted RIJCOSX, COSX-SCS-MP3, EOM
   Christian Kollmar      : KDIIS, OOCD, Brueckner-CCSD(T), CCSD density
   Simone Kossmann        : Meta GGA functionals, TD-DFT gradient, OOMP2, MP2 Hessian
   Martin Krupicka        : AUTO-CI
   Lucas Lang             : DCDCAS
   Dagmar Lenk            : GEPOL surface, SMD
   Dimitrios Liakos       : Extrapolation schemes; Compound Job, initial MDCI parallelization
   Dimitrios Manganas     : Further ROCIS development; embedding schemes
   Dimitrios Pantazis     : SARC Basis sets
   Taras Petrenko         : DFT Hessian,TD-DFT gradient, ASA, ECA, R-Raman, ABS, FL, XAS/XES, NRVS
   Peter Pinski           : DLPNO-MP2, DLPNO-MP2 Gradient
   Christoph Reimann      : Effective Core Potentials
   Marius Retegan         : Local ZFS, SOC
   Christoph Riplinger    : Optimizer, TS searches, QM/MM, DLPNO-CCSD(T), (RO)-DLPNO pert. Triples
   Tobias Risthaus        : Range-separated hybrids, TD-DFT gradient, RPA, STAB
   Michael Roemelt        : Original ROCIS implementation
   Masaaki Saitow         : Open-shell DLPNO-CCSD energy and density
   Barbara Sandhoefer     : DKH picture change effects
   Avijit Sen             : IP-ROCIS
   Kantharuban Sivalingam : CASSCF convergence, NEVPT2, FIC-MRCI
   Bernardo de Souza      : ESD, SOC TD-DFT
   Georgi Stoychev        : AutoAux, RI-MP2 NMR
   Willem Van den Heuvel  : Paramagnetic NMR
   Boris Wezisla          : Elementary symmetry handling
   Frank Wennmohs         : Technical directorship


 We gratefully acknowledge several colleagues who have allowed us to
 interface, adapt or use parts of their codes:
   Stefan Grimme, W. Hujo, H. Kruse,             : VdW corrections, initial TS optimization,
                  C. Bannwarth                     DFT functionals, gCP, sTDA/sTD-DF
   Ed Valeev, F. Pavosevic, A. Kumar             : LibInt (2-el integral package), F12 methods
   Garnet Chan, S. Sharma, J. Yang, R. Olivares  : DMRG
   Ulf Ekstrom                                   : XCFun DFT Library
   Mihaly Kallay                                 : mrcc  (arbitrary order and MRCC methods)
   Andreas Klamt, Michael Diedenhofen            : otool_cosmo (COSMO solvation model)
   Jiri Pittner, Ondrej Demel                    : Mk-CCSD
   Frank Weinhold                                : gennbo (NPA and NBO analysis)
   Christopher J. Cramer and Donald G. Truhlar   : smd solvation model
   Lars Goerigk                                  : TD-DFT with DH, B97 family of functionals
   V. Asgeirsson, H. Jonsson                     : NEB implementation
   FAccTs GmbH                                   : IRC, NEB, NEB-TS, Multilevel, MM, QM/MM, CI optimization
   S Lehtola, MJT Oliveira, MAL Marques          : LibXC Library


 Your calculation uses the libint2 library for the computation of 2-el integrals
 For citations please refer to: http://libint.valeyev.net

 Your ORCA version has been built with support for libXC version: 4.2.3
 For citations please refer to: https://tddft.org/programs/libxc/

 This ORCA versions uses:
   CBLAS   interface :  Fast vector & matrix operations
   LAPACKE interface :  Fast linear algebra routines
   SCALAPACK package :  Parallel linear algebra routines


Your calculation utilizes the atom-pairwise dispersion correction
with the Becke-Johnson damping scheme (D3BJ)
Cite in your paper:
S.Grimme, S.Ehrlich, L.Goerigk, J Comput Chem, (2011), 32, 1456–1465 
S.Grimme, J.Antony, S.Ehrlich and H.Krieg, J.Chem.Phys., 132, (2010), 154104 
   

----- Orbital basis set information -----
Your calculation utilizes the basis: def2-TZVPPD
   F. Weigend and R. Ahlrichs, Phys. Chem. Chem. Phys. 7, 3297 (2005).
   D. Rappoport and F. Furche, J. Chem. Phys. 133 134105 (2010).

----- AuxJ basis set information -----
Your calculation utilizes the auxiliary basis: def2/J
   F. Weigend, Phys. Chem. Chem. Phys. 8, 1057 (2006).

================================================================================
                                        WARNINGS
                       Please study these warnings very carefully!
================================================================================


INFO   : the flag for use of LIBINT has been found!

================================================================================
                                       INPUT FILE
================================================================================
NAME = TMD14_Zn.in
|  1> #
|  2> # TMD14_Zn TPSS-D3BJ/Def2-TZVPPD
|  3> #
|  4> ! tpss d3bj def2-tzvppd def2/j grid4 nofinalgrid
|  5> 
|  6> *xyz 0 1
|  7> Zn       0.000000    0.000000    0.000000 
|  8> *
|  9> 
| 10> %maxcore 5000
| 11> 
| 12> %pal
| 13> nprocs = 24
| 14> end
| 15> 
| 16> 
| 17>                          ****END OF INPUT****
================================================================================

                       ****************************
                       * Single Point Calculation *
                       ****************************

---------------------------------
CARTESIAN COORDINATES (ANGSTROEM)
---------------------------------
  Zn     0.000000    0.000000    0.000000

----------------------------
CARTESIAN COORDINATES (A.U.)
----------------------------
  NO LB      ZA    FRAG     MASS         X           Y           Z
   0 Zn   30.0000    0    65.380    0.000000    0.000000    0.000000

--------------------------------
INTERNAL COORDINATES (ANGSTROEM)
--------------------------------
 Zn     0   0   0     0.000000000000     0.00000000     0.00000000

---------------------------
INTERNAL COORDINATES (A.U.)
---------------------------
 Zn     0   0   0     0.000000000000     0.00000000     0.00000000

---------------------
BASIS SET INFORMATION
---------------------
There are 1 groups of distinct atoms

 Group   1 Type Zn  : 17s13p7d2f1g contracted to 6s6p4d2f1g pattern {842111/631111/4111/11/1}

Atom   0Zn   basis set group =>   1
---------------------------------
AUXILIARY/J BASIS SET INFORMATION
---------------------------------
There are 1 groups of distinct atoms

 Group   1 Type Zn  : 19s5p5d3f3g contracted to 8s5p5d2f3g pattern {121111111/11111/11111/21/111}

Atom   0Zn   basis set group =>   1


           ************************************************************
           *        Program running with 24 parallel MPI-processes    *
           *              working on a common directory               *
           ************************************************************
------------------------------------------------------------------------------
                           ORCA GTO INTEGRAL CALCULATION
                           -- RI-GTO INTEGRALS CHOSEN --
------------------------------------------------------------------------------

                         BASIS SET STATISTICS AND STARTUP INFO

Gaussian basis set:
 # of primitive gaussian shells          ...   40
 # of primitive gaussian functions       ...  114
 # of contracted shells                  ...   19
 # of contracted basis functions         ...   67
 Highest angular momentum                ...    4
 Maximum contraction depth               ...    8
Auxiliary gaussian basis set:
 # of primitive gaussian shells          ...   35
 # of primitive gaussian functions       ...  107
 # of contracted shells                  ...   23
 # of contracted aux-basis functions     ...   89
 Highest angular momentum                ...    4
 Maximum contraction depth               ...   12
Ratio of auxiliary to basis functions    ...  1.33
Integral package used                  ... LIBINT
 One Electron integrals                  ... done
 Ordering auxiliary basis shells         ... done
 Integral threshhold             Thresh  ...  1.000e-10
 Primitive cut-off               TCut    ...  1.000e-11
 Pre-screening matrix                    ... done
 Shell pair data                         ... 
 Ordering of the shell pairs             ... done (   0.000 sec) 190 of 190 pairs
 Determination of significant pairs      ... done (   0.000 sec)
 Creation of shell pair data             ... done (   0.000 sec)
 Storage of shell pair data              ... done (   0.039 sec)
 Shell pair data done in (   0.039 sec)
 Computing two index integrals           ... done
 Cholesky decomposition of the V-matrix  ... done


Timings:
 Total evaluation time                   ...   0.195 sec (  0.003 min)
 One electron matrix time                ...   0.027 sec (  0.000 min) = 13.8%
 Schwartz matrix evaluation time         ...   0.104 sec (  0.002 min) = 53.4%
 Two index repulsion integral time       ...   0.000 sec (  0.000 min) =  0.2%
 Cholesky decomposition of V             ...   0.001 sec (  0.000 min) =  0.3%
 Three index repulsion integral time     ...   0.000 sec (  0.000 min) =  0.0%



           ************************************************************
           *        Program running with 24 parallel MPI-processes    *
           *              working on a common directory               *
           ************************************************************
-------------------------------------------------------------------------------
                                 ORCA SCF
-------------------------------------------------------------------------------

------------
SCF SETTINGS
------------
Hamiltonian:
 Density Functional     Method          .... DFT(GTOs)
 Exchange Functional    Exchange        .... TPSS
 Correlation Functional Correlation     .... TPSS
 LDA part of GGA corr.  LDAOpt          .... PW91-LDA
 Gradients option       PostSCFGGA      .... off
   Density functional embedding theory  .... OFF
   NL short-range parameter             ....  5.000000
 RI-approximation to the Coulomb term is turned on
   Number of auxiliary basis functions  .... 89


General Settings:
 Integral files         IntName         .... TMD14_Zn
 Hartree-Fock type      HFTyp           .... RHF
 Total Charge           Charge          ....    0
 Multiplicity           Mult            ....    1
 Number of Electrons    NEL             ....   30
 Basis Dimension        Dim             ....   67
 Nuclear Repulsion      ENuc            ....      0.0000000000 Eh

Convergence Acceleration:
 DIIS                   CNVDIIS         .... on
   Start iteration      DIISMaxIt       ....    12
   Startup error        DIISStart       ....  0.200000
   # of expansion vecs  DIISMaxEq       ....     5
   Bias factor          DIISBfac        ....   1.050
   Max. coefficient     DIISMaxC        ....  10.000
 Newton-Raphson         CNVNR           .... off
 SOSCF                  CNVSOSCF        .... off
 Level Shifting         CNVShift        .... on
   Level shift para.    LevelShift      ....    0.2500
   Turn off err/grad.   ShiftErr        ....    0.0010
 Zerner damping         CNVZerner       .... off
 Static damping         CNVDamp         .... on
   Fraction old density DampFac         ....    0.7000
   Max. Damping (<1)    DampMax         ....    0.9800
   Min. Damping (>=0)   DampMin         ....    0.0000
   Turn off err/grad.   DampErr         ....    0.1000
 Fernandez-Rico         CNVRico         .... off

SCF Procedure:
 Maximum # iterations   MaxIter         ....   125
 SCF integral mode      SCFMode         .... Direct
   Integral package                     .... LIBINT
 Reset frequency        DirectResetFreq ....    20
 Integral Threshold     Thresh          ....  1.000e-10 Eh
 Primitive CutOff       TCut            ....  1.000e-11 Eh

Convergence Tolerance:
 Convergence Check Mode ConvCheckMode   .... Total+1el-Energy
 Convergence forced     ConvForced      .... 0
 Energy Change          TolE            ....  1.000e-06 Eh
 1-El. energy change                    ....  1.000e-03 Eh
 DIIS Error             TolErr          ....  1.000e-06


Diagonalization of the overlap matrix:
Smallest eigenvalue                        ... 6.068e-02
Time for diagonalization                   ...    0.002 sec
Threshold for overlap eigenvalues          ... 1.000e-08
Number of eigenvalues below threshold      ... 0
Time for construction of square roots      ...    0.001 sec
Total time needed                          ...    0.003 sec

-------------------
DFT GRID GENERATION
-------------------

General Integration Accuracy     IntAcc      ...  4.670
Radial Grid Type                 RadialGrid  ... Gauss-Chebyshev
Angular Grid (max. acc.)         AngularGrid ... Lebedev-302
Angular grid pruning method      GridPruning ... 3 (G Style)
Weight generation scheme         WeightScheme... Becke
Basis function cutoff            BFCut       ...    1.0000e-10
Integration weight cutoff        WCut        ...    1.0000e-14
Grids for H and He will be reduced by one unit

# of grid points (after initial pruning)     ...   9640 (   0.0 sec)
# of grid points (after weights+screening)   ...   9640 (   0.0 sec)
Grid point division into batches done        ...    0.1 sec
Reduced shell lists constructed in    0.1 sec

Total number of grid points                  ...     9640
Total number of batches                      ...      151
Average number of points per batch           ...       63
Average number of grid points per atom       ...     9640
Average number of shells per batch           ...     3.75 (19.74%)
Average number of basis functions per batch  ...    11.00 (16.42%)
Average number of large shells per batch     ...     2.62 (70.00%)
Average number of large basis fcns per batch ...     6.12 (55.68%)
Maximum spatial batch extension              ...  22.45, 20.42, 18.83 au
Average spatial batch extension              ...   0.86,  0.81,  0.78 au

Time for grid setup =    0.117 sec

------------------------------
INITIAL GUESS: MODEL POTENTIAL
------------------------------
Loading Hartree-Fock densities                     ... done
Calculating cut-offs                               ... done
Setting up the integral package                    ... done
Initializing the effective Hamiltonian             ... done
Starting the Coulomb interaction                   ... done (   0.0 sec)
Reading the grid                                   ... done
Mapping shells                                     ... done
Starting the XC term evaluation                    ... done (   0.0 sec)
  promolecular density results
     # of electrons  =     30.000011373
     EX              =    -69.527438408
     EC              =     -1.405541621
     EX+EC           =    -70.932980029
Transforming the Hamiltonian                       ... done (   0.0 sec)
Diagonalizing the Hamiltonian                      ... done (   0.0 sec)
Back transforming the eigenvectors                 ... done (   0.0 sec)
Now organizing SCF variables                       ... done
                      ------------------
                      INITIAL GUESS DONE (   0.2 sec)
                      ------------------
--------------
SCF ITERATIONS
--------------
ITER       Energy         Delta-E        Max-DP      RMS-DP      [F,P]     Damp
               ***  Starting incremental Fock matrix formation  ***
  0  -1779.3759606512   0.000000000000 0.05495272  0.00173545  0.2016877 0.7000
  1  -1779.3895102858  -0.013549634588 0.04113881  0.00084164  0.0338780 0.7000
                               ***Turning on DIIS***
  2  -1779.3933413530  -0.003831067184 0.06091775  0.00117920  0.0205277 0.0000
  3  -1779.4037128882  -0.010371535255 0.02679209  0.00050818  0.0069330 0.0000
  4  -1779.4038508805  -0.000137992284 0.00612348  0.00011927  0.0037194 0.0000
  5  -1779.4038631355  -0.000012255019 0.00466855  0.00008365  0.0004806 0.0000
  6  -1779.4038635963  -0.000000460807 0.00059161  0.00001099  0.0002840 0.0000
                 **** Energy Check signals convergence ****

               *****************************************************
               *                     SUCCESS                       *
               *           SCF CONVERGED AFTER   7 CYCLES          *
               *****************************************************


----------------
TOTAL SCF ENERGY
----------------

Total Energy       :        -1779.40386376 Eh          -48420.04076 eV

Components:
Nuclear Repulsion  :            0.00000000 Eh               0.00000 eV
Electronic Energy  :        -1779.40386376 Eh          -48420.04076 eV
One Electron Energy:        -2482.12057039 Eh          -67541.93449 eV
Two Electron Energy:          702.71670662 Eh           19121.89373 eV

Virial components:
Potential Energy   :        -3556.08508255 Eh          -96765.99458 eV
Kinetic Energy     :         1776.68121878 Eh           48345.95382 eV
Virial Ratio       :            2.00153243


DFT components:
N(Alpha)           :       14.999999139270 electrons
N(Beta)            :       14.999999139270 electrons
N(Total)           :       29.999998278541 electrons
E(X)               :      -69.664833479129 Eh       
E(C)               :       -1.407349094212 Eh       
E(XC)              :      -71.072182573340 Eh       
DFET-embed. en.    :        0.000000000000 Eh       

---------------
SCF CONVERGENCE
---------------

  Last Energy change         ...   -1.6799e-07  Tolerance :   1.0000e-06
  Last MAX-Density change    ...    4.8590e-05  Tolerance :   1.0000e-05
  Last RMS-Density change    ...    8.9209e-07  Tolerance :   1.0000e-06
  Last DIIS Error            ...    8.9772e-06  Tolerance :   1.0000e-06

             **** THE GBW FILE WAS UPDATED (TMD14_Zn.gbw) ****
             **** DENSITY FILE WAS UPDATED (TMD14_Zn.scfp) ****
             **** ENERGY FILE WAS UPDATED (TMD14_Zn.en.tmp) ****
             **** THE GBW FILE WAS UPDATED (TMD14_Zn.gbw) ****
             **** DENSITY FILE WAS UPDATED (TMD14_Zn.scfp) ****
----------------
ORBITAL ENERGIES
----------------

  NO   OCC          E(Eh)            E(eV) 
   0   2.0000    -346.301405     -9423.3403 
   1   2.0000     -41.755976     -1136.2379 
   2   2.0000     -36.749006      -999.9913 
   3   2.0000     -36.749006      -999.9913 
   4   2.0000     -36.749006      -999.9913 
   5   2.0000      -4.646772      -126.4451 
   6   2.0000      -3.054270       -83.1109 
   7   2.0000      -3.054270       -83.1109 
   8   2.0000      -3.054270       -83.1109 
   9   2.0000      -0.387209       -10.5365 
  10   2.0000      -0.387209       -10.5365 
  11   2.0000      -0.387209       -10.5365 
  12   2.0000      -0.387209       -10.5365 
  13   2.0000      -0.387209       -10.5365 
  14   2.0000      -0.213334        -5.8051 
  15   0.0000      -0.037940        -1.0324 
  16   0.0000      -0.037940        -1.0324 
  17   0.0000      -0.037940        -1.0324 
  18   0.0000       0.049030         1.3342 
  19   0.0000       0.049030         1.3342 
  20   0.0000       0.049030         1.3342 
  21   0.0000       0.122012         3.3201 
  22   0.0000       0.237191         6.4543 
  23   0.0000       0.237191         6.4543 
  24   0.0000       0.237191         6.4543 
  25   0.0000       0.237191         6.4543 
  26   0.0000       0.237191         6.4543 
  27   0.0000       0.257529         7.0077 
  28   0.0000       0.257529         7.0077 
  29   0.0000       0.257529         7.0077 
  30   0.0000       1.168501        31.7965 
  31   0.0000       1.168501        31.7965 
  32   0.0000       1.168501        31.7965 
  33   0.0000       1.168501        31.7965 
  34   0.0000       1.168501        31.7965 
  35   0.0000       2.304631        62.7122 
  36   0.0000       2.304631        62.7122 
  37   0.0000       2.304631        62.7122 
  38   0.0000       3.342845        90.9634 
  39   0.0000       3.831372       104.2569 
  40   0.0000       3.831372       104.2569 
  41   0.0000       3.831372       104.2569 
  42   0.0000       3.831372       104.2569 
  43   0.0000       3.831372       104.2569 
  44   0.0000       3.831372       104.2569 
  45   0.0000       3.831372       104.2569 
  46   0.0000       4.711804       128.2147 
  47   0.0000       4.711804       128.2147 
  48   0.0000       4.711804       128.2147 
  49   0.0000       4.711804       128.2147 
  50   0.0000       4.711804       128.2147 
  51   0.0000      14.191641       386.1742 
  52   0.0000      14.191641       386.1742 
  53   0.0000      14.191641       386.1742 
  54   0.0000      14.191641       386.1742 
  55   0.0000      14.191641       386.1742 
  56   0.0000      14.191641       386.1742 
  57   0.0000      14.191641       386.1742 
  58   0.0000      14.191641       386.1742 
  59   0.0000      14.191641       386.1742 
  60   0.0000      14.857521       404.2937 
  61   0.0000      14.857521       404.2937 
  62   0.0000      14.857521       404.2937 
  63   0.0000      14.857521       404.2937 
  64   0.0000      14.857521       404.2937 
  65   0.0000      14.857521       404.2937 
  66   0.0000      14.857521       404.2937 

                    ********************************
                    * MULLIKEN POPULATION ANALYSIS *
                    ********************************

-----------------------
MULLIKEN ATOMIC CHARGES
-----------------------
   0 Zn:   -0.000000
Sum of atomic charges:   -0.0000000

--------------------------------
MULLIKEN REDUCED ORBITAL CHARGES
--------------------------------
  0 Zns       :     8.000000  s :     8.000000
      pz      :     4.000000  p :    12.000000
      px      :     4.000000
      py      :     4.000000
      dz2     :     2.000000  d :    10.000000
      dxz     :     2.000000
      dyz     :     2.000000
      dx2y2   :     2.000000
      dxy     :     2.000000
      f0      :     0.000000  f :     0.000000
      f+1     :     0.000000
      f-1     :     0.000000
      f+2     :     0.000000
      f-2     :     0.000000
      f+3     :     0.000000
      f-3     :     0.000000
      g0      :     0.000000  g :     0.000000
      g+1     :     0.000000
      g-1     :     0.000000
      g+2     :     0.000000
      g-2     :     0.000000
      g+3     :     0.000000
      g-3     :     0.000000
      g+4     :     0.000000
      g-4     :     0.000000


                     *******************************
                     * LOEWDIN POPULATION ANALYSIS *
                     *******************************

----------------------
LOEWDIN ATOMIC CHARGES
----------------------
   0 Zn:   -0.000000

-------------------------------
LOEWDIN REDUCED ORBITAL CHARGES
-------------------------------
  0 Zns       :     8.000000  s :     8.000000
      pz      :     4.000000  p :    12.000000
      px      :     4.000000
      py      :     4.000000
      dz2     :     2.000000  d :    10.000000
      dxz     :     2.000000
      dyz     :     2.000000
      dx2y2   :     2.000000
      dxy     :     2.000000
      f0      :     0.000000  f :     0.000000
      f+1     :     0.000000
      f-1     :     0.000000
      f+2     :     0.000000
      f-2     :     0.000000
      f+3     :     0.000000
      f-3     :     0.000000
      g0      :     0.000000  g :     0.000000
      g+1     :     0.000000
      g-1     :     0.000000
      g+2     :     0.000000
      g-2     :     0.000000
      g+3     :     0.000000
      g-3     :     0.000000
      g+4     :     0.000000
      g-4     :     0.000000


                      *****************************
                      * MAYER POPULATION ANALYSIS *
                      *****************************

  NA   - Mulliken gross atomic population
  ZA   - Total nuclear charge
  QA   - Mulliken gross atomic charge
  VA   - Mayer's total valence
  BVA  - Mayer's bonded valence
  FA   - Mayer's free valence

  ATOM       NA         ZA         QA         VA         BVA        FA
  0 Zn    30.0000    30.0000    -0.0000    -0.0000     0.0000    -0.0000

  Mayer bond orders larger than 0.100000


--------------------------
ATOM BASIS FOR ELEMENT Zn
--------------------------
 NewGTO Zn
 S 17
    1     405924.310279999976         0.000236971700
    2      60846.955735000003         0.001837536076
    3      13847.343091999999         0.009557562123
    4       3919.615855100000         0.038876482474
    5       1276.359416700000         0.126762643090
    6        458.672544350000         0.301742755182
    7        178.287252460000         0.433854248556
    8         70.612192837000         0.230371538647
    9        443.880779500000        -0.000171669137
   10        137.558752670000        -0.000813650396
   11         22.268083479000         0.003811965579
   12          9.521731060600         0.003623431548
   13         14.874114065000         0.000920671387
   14          2.464751761200        -0.002856194208
   15          1.011327223800         0.001562145640
   16          0.149198520900        -0.000412655304
   17          0.051441873000         0.000186148103
 S 17
    1     405924.310279999976         0.000076057834
    2      60846.955735000003         0.000589770901
    3      13847.343091999999         0.003067570810
    4       3919.615855100000         0.012477696856
    5       1276.359416700000         0.040685415254
    6        458.672544350000         0.096846586623
    7        178.287252460000         0.139248755249
    8         70.612192837000         0.073939462638
    9        443.880779500000         0.026096396782
   10        137.558752670000         0.123687599870
   11         22.268083479000        -0.579478453472
   12          9.521731060600        -0.550818328748
   13         14.874114065000         0.015783656636
   14          2.464751761200        -0.048965558526
   15          1.011327223800         0.014647163064
   16          0.149198520900        -0.003158241072
   17          0.051441873000         0.001403391508
 S 17
    1     405924.310279999976         0.000028724942
    2      60846.955735000003         0.000222740176
    3      13847.343091999999         0.001158536746
    4       3919.615855100000         0.004712481377
    5       1276.359416700000         0.015365757311
    6        458.672544350000         0.036576280152
    7        178.287252460000         0.052590407782
    8         70.612192837000         0.027924892286
    9        443.880779500000         0.011804457072
   10        137.558752670000         0.055948910311
   11         22.268083479000        -0.262121571238
   12          9.521731060600        -0.249157436197
   13         14.874114065000        -0.240727993754
   14          2.464751761200         0.746809243171
   15          1.011327223800         0.472974344705
   16          0.149198520900         0.017812818760
   17          0.051441873000        -0.006155354751
 S 17
    1     405924.310279999976         0.000007064303
    2      60846.955735000003         0.000054778317
    3      13847.343091999999         0.000284918036
    4       3919.615855100000         0.001158936861
    5       1276.359416700000         0.003778888683
    6        458.672544350000         0.008995175985
    7        178.287252460000         0.012933517874
    8         70.612192837000         0.006867546930
    9        443.880779500000         0.002362195069
   10        137.558752670000         0.011195960918
   11         22.268083479000        -0.052453262287
   12          9.521731060600        -0.049859003553
   13         14.874114065000        -0.084788413669
   14          2.464751761200         0.263038668891
   15          1.011327223800         0.244920459757
   16          0.149198520900        -0.739991268888
   17          0.051441873000        -0.401908467632
 S 17
    1     405924.310279999976         0.000005643241
    2      60846.955735000003         0.000043759063
    3      13847.343091999999         0.000227603674
    4       3919.615855100000         0.000925804104
    5       1276.359416700000         0.003018724118
    6        458.672544350000         0.007185698485
    7        178.287252460000         0.010331800061
    8         70.612192837000         0.005486065159
    9        443.880779500000         0.002132013567
   10        137.558752670000         0.010104982814
   11         22.268083479000        -0.047342011805
   12          9.521731060600        -0.045000547761
   13         14.874114065000        -0.062127943015
   14          2.464751761200         0.192739204855
   15          1.011327223800         0.322456618149
   16          0.149198520900        -1.875368632002
   17          0.051441873000         1.775965879464
 S 17
    1     405924.310279999976        -0.000039480112
    2      60846.955735000003        -0.000306138368
    3      13847.343091999999        -0.001592315118
    4       3919.615855100000        -0.006476924761
    5       1276.359416700000        -0.021118991470
    6        458.672544350000        -0.050271140752
    7        178.287252460000        -0.072281264820
    8         70.612192837000        -0.038380507388
    9        443.880779500000         0.001755337324
   10        137.558752670000         0.008319671958
   11         22.268083479000        -0.038977800885
   12          9.521731060600        -0.037050018018
   13         14.874114065000         0.881175659469
   14          2.464751761200        -2.733666812430
   15          1.011327223800         2.816117184492
   16          0.149198520900        -1.156859979189
   17          0.051441873000         0.532921602708
 P 13
    1       2205.350853400000         0.002617834716
    2        522.353006990000         0.021330518804
    3        167.730555420000         0.100825007823
    4         62.670045373000         0.292684819232
    5         25.109749456000         0.474653616369
    6         10.225142681000         0.275936030349
    7         40.713442521000        -0.000528504028
    8          5.624709069600         0.009780909477
    9          2.227994911600         0.016821681565
   10          0.833547416900        -0.005976710140
   11          0.162455000000         0.001805718995
   12          0.047769000000        -0.001209171499
   13          0.021234841500         0.000569354742
 P 13
    1       2205.350853400000         0.001023069106
    2        522.353006990000         0.008336124000
    3        167.730555420000         0.039403156353
    4         62.670045373000         0.114383385069
    5         25.109749456000         0.185498132489
    6         10.225142681000         0.107837834899
    7         40.713442521000         0.018555986308
    8          5.624709069600        -0.343411616136
    9          2.227994911600        -0.590615920341
   10          0.833547416900        -0.257369521689
   11          0.162455000000        -0.009874990486
   12          0.047769000000         0.003993660415
   13          0.021234841500        -0.001753695256
 P 13
    1       2205.350853400000         0.000145225336
    2        522.353006990000         0.001183318311
    3        167.730555420000         0.005593304083
    4         62.670045373000         0.016236797100
    5         25.109749456000         0.026331582491
    6         10.225142681000         0.015307651927
    7         40.713442521000         0.003258609317
    8          5.624709069600        -0.060306376253
    9          2.227994911600        -0.103717825023
   10          0.833547416900        -0.009906246678
   11          0.162455000000         0.431241245255
   12          0.047769000000         0.460827644063
   13          0.021234841500         0.270762644419
 P 13
    1       2205.350853400000         0.000099334176
    2        522.353006990000         0.000809390102
    3        167.730555420000         0.003825821778
    4         62.670045373000         0.011105974398
    5         25.109749456000         0.018010810828
    6         10.225142681000         0.010470438804
    7         40.713442521000         0.002263706626
    8          5.624709069600        -0.041893927807
    9          2.227994911600        -0.072051204926
   10          0.833547416900         0.002006520144
   11          0.162455000000         0.249968346742
   12          0.047769000000         1.076631043045
   13          0.021234841500        -1.563972989206
 P 13
    1       2205.350853400000         0.000207063512
    2        522.353006990000         0.001687185254
    3        167.730555420000         0.007974980261
    4         62.670045373000         0.023150562610
    5         25.109749456000         0.037543792987
    6         10.225142681000         0.021825779566
    7         40.713442521000         0.004632371581
    8          5.624709069600        -0.085730296661
    9          2.227994911600        -0.147443113991
   10          0.833547416900        -0.054205604433
   11          0.162455000000         1.425690566889
   12          0.047769000000        -2.137833983126
   13          0.021234841500         1.155109734345
 P 13
    1       2205.350853400000         0.000852693355
    2        522.353006990000         0.006947876244
    3        167.730555420000         0.032841192614
    4         62.670045373000         0.095334666777
    5         25.109749456000         0.154606393559
    6         10.225142681000         0.089879173010
    7         40.713442521000         0.025122582933
    8          5.624709069600        -0.464938196404
    9          2.227994911600        -0.799623215605
   10          0.833547416900         1.603401962625
   11          0.162455000000        -0.923931917220
   12          0.047769000000         0.644450240389
   13          0.021234841500        -0.300169364522
 D 7
    1         88.554315311000         0.012706398366
    2         25.721525557000         0.079258694889
    3          9.127836762400         0.244496138867
    4          3.431236406400         0.403214381696
    5          1.230892064500         0.381168856915
    6          0.390318451100         0.231564619496
    7          0.124000000000         0.043053922061
 D 7
    1         88.554315311000         0.003264713732
    2         25.721525557000         0.020364303253
    3          9.127836762400         0.062819524384
    4          3.431236406400         0.103599736994
    5          1.230892064500         0.062826925821
    6          0.390318451100         0.120538610261
    7          0.124000000000        -1.050895809637
 D 7
    1         88.554315311000         0.007104863743
    2         25.721525557000         0.044318005104
    3          9.127836762400         0.136711576506
    4          3.431236406400         0.225459894979
    5          1.230892064500         0.328347848575
    6          0.390318451100        -1.340987741010
    7          0.124000000000         0.686026906273
 D 7
    1         88.554315311000         0.018706586114
    2         25.721525557000         0.116686063079
    3          9.127836762400         0.359951572786
    4          3.431236406400         0.593619398385
    5          1.230892064500        -1.422174408665
    6          0.390318451100         0.833413096893
    7          0.124000000000        -0.280382069746
 F 2
    1          1.433000000000         0.982238523007
    2          5.694000000000         0.045617471046
 F 2
    1          1.433000000000        -0.439864006840
    2          5.694000000000         1.075263645311
 G 1
    1          3.617000000000         1.000000000000
 end
  // -----------------------------------------------
  // The basis set
  // -----------------------------------------------
  BAS[ATNO] = new BFNGauss[NSH];
  // Basis function   1 L = s
  InitBFNGauss(BAS[ATNO][  0]);
  BAS[ATNO][  0].l  = 0;
  BAS[ATNO][  0].ng = 17;
  BAS[ATNO][  0].a[  0] =    405924.310279999976;     BAS[ATNO][  0].d[  0] =         0.000236971700;
  BAS[ATNO][  0].a[  1] =     60846.955735000003;     BAS[ATNO][  0].d[  1] =         0.001837536076;
  BAS[ATNO][  0].a[  2] =     13847.343091999999;     BAS[ATNO][  0].d[  2] =         0.009557562123;
  BAS[ATNO][  0].a[  3] =      3919.615855100000;     BAS[ATNO][  0].d[  3] =         0.038876482474;
  BAS[ATNO][  0].a[  4] =      1276.359416700000;     BAS[ATNO][  0].d[  4] =         0.126762643090;
  BAS[ATNO][  0].a[  5] =       458.672544350000;     BAS[ATNO][  0].d[  5] =         0.301742755182;
  BAS[ATNO][  0].a[  6] =       178.287252460000;     BAS[ATNO][  0].d[  6] =         0.433854248556;
  BAS[ATNO][  0].a[  7] =        70.612192837000;     BAS[ATNO][  0].d[  7] =         0.230371538647;
  BAS[ATNO][  0].a[  8] =       443.880779500000;     BAS[ATNO][  0].d[  8] =        -0.000171669137;
  BAS[ATNO][  0].a[  9] =       137.558752670000;     BAS[ATNO][  0].d[  9] =        -0.000813650396;
  BAS[ATNO][  0].a[ 10] =        22.268083479000;     BAS[ATNO][  0].d[ 10] =         0.003811965579;
  BAS[ATNO][  0].a[ 11] =         9.521731060600;     BAS[ATNO][  0].d[ 11] =         0.003623431548;
  BAS[ATNO][  0].a[ 12] =        14.874114065000;     BAS[ATNO][  0].d[ 12] =         0.000920671387;
  BAS[ATNO][  0].a[ 13] =         2.464751761200;     BAS[ATNO][  0].d[ 13] =        -0.002856194208;
  BAS[ATNO][  0].a[ 14] =         1.011327223800;     BAS[ATNO][  0].d[ 14] =         0.001562145640;
  BAS[ATNO][  0].a[ 15] =         0.149198520900;     BAS[ATNO][  0].d[ 15] =        -0.000412655304;
  BAS[ATNO][  0].a[ 16] =         0.051441873000;     BAS[ATNO][  0].d[ 16] =         0.000186148103;

  // Basis function   2 L = s
  InitBFNGauss(BAS[ATNO][  1]);
  BAS[ATNO][  1].l  = 0;
  BAS[ATNO][  1].ng = 17;
  BAS[ATNO][  1].a[  0] =    405924.310279999976;     BAS[ATNO][  1].d[  0] =        -0.000076057834;
  BAS[ATNO][  1].a[  1] =     60846.955735000003;     BAS[ATNO][  1].d[  1] =        -0.000589770901;
  BAS[ATNO][  1].a[  2] =     13847.343091999999;     BAS[ATNO][  1].d[  2] =        -0.003067570810;
  BAS[ATNO][  1].a[  3] =      3919.615855100000;     BAS[ATNO][  1].d[  3] =        -0.012477696856;
  BAS[ATNO][  1].a[  4] =      1276.359416700000;     BAS[ATNO][  1].d[  4] =        -0.040685415254;
  BAS[ATNO][  1].a[  5] =       458.672544350000;     BAS[ATNO][  1].d[  5] =        -0.096846586623;
  BAS[ATNO][  1].a[  6] =       178.287252460000;     BAS[ATNO][  1].d[  6] =        -0.139248755249;
  BAS[ATNO][  1].a[  7] =        70.612192837000;     BAS[ATNO][  1].d[  7] =        -0.073939462638;
  BAS[ATNO][  1].a[  8] =       443.880779500000;     BAS[ATNO][  1].d[  8] =        -0.026096396782;
  BAS[ATNO][  1].a[  9] =       137.558752670000;     BAS[ATNO][  1].d[  9] =        -0.123687599870;
  BAS[ATNO][  1].a[ 10] =        22.268083479000;     BAS[ATNO][  1].d[ 10] =         0.579478453472;
  BAS[ATNO][  1].a[ 11] =         9.521731060600;     BAS[ATNO][  1].d[ 11] =         0.550818328748;
  BAS[ATNO][  1].a[ 12] =        14.874114065000;     BAS[ATNO][  1].d[ 12] =        -0.015783656636;
  BAS[ATNO][  1].a[ 13] =         2.464751761200;     BAS[ATNO][  1].d[ 13] =         0.048965558526;
  BAS[ATNO][  1].a[ 14] =         1.011327223800;     BAS[ATNO][  1].d[ 14] =        -0.014647163064;
  BAS[ATNO][  1].a[ 15] =         0.149198520900;     BAS[ATNO][  1].d[ 15] =         0.003158241072;
  BAS[ATNO][  1].a[ 16] =         0.051441873000;     BAS[ATNO][  1].d[ 16] =        -0.001403391508;

  // Basis function   3 L = s
  InitBFNGauss(BAS[ATNO][  2]);
  BAS[ATNO][  2].l  = 0;
  BAS[ATNO][  2].ng = 17;
  BAS[ATNO][  2].a[  0] =    405924.310279999976;     BAS[ATNO][  2].d[  0] =         0.000028724942;
  BAS[ATNO][  2].a[  1] =     60846.955735000003;     BAS[ATNO][  2].d[  1] =         0.000222740176;
  BAS[ATNO][  2].a[  2] =     13847.343091999999;     BAS[ATNO][  2].d[  2] =         0.001158536746;
  BAS[ATNO][  2].a[  3] =      3919.615855100000;     BAS[ATNO][  2].d[  3] =         0.004712481377;
  BAS[ATNO][  2].a[  4] =      1276.359416700000;     BAS[ATNO][  2].d[  4] =         0.015365757311;
  BAS[ATNO][  2].a[  5] =       458.672544350000;     BAS[ATNO][  2].d[  5] =         0.036576280152;
  BAS[ATNO][  2].a[  6] =       178.287252460000;     BAS[ATNO][  2].d[  6] =         0.052590407782;
  BAS[ATNO][  2].a[  7] =        70.612192837000;     BAS[ATNO][  2].d[  7] =         0.027924892286;
  BAS[ATNO][  2].a[  8] =       443.880779500000;     BAS[ATNO][  2].d[  8] =         0.011804457072;
  BAS[ATNO][  2].a[  9] =       137.558752670000;     BAS[ATNO][  2].d[  9] =         0.055948910311;
  BAS[ATNO][  2].a[ 10] =        22.268083479000;     BAS[ATNO][  2].d[ 10] =        -0.262121571238;
  BAS[ATNO][  2].a[ 11] =         9.521731060600;     BAS[ATNO][  2].d[ 11] =        -0.249157436197;
  BAS[ATNO][  2].a[ 12] =        14.874114065000;     BAS[ATNO][  2].d[ 12] =        -0.240727993754;
  BAS[ATNO][  2].a[ 13] =         2.464751761200;     BAS[ATNO][  2].d[ 13] =         0.746809243171;
  BAS[ATNO][  2].a[ 14] =         1.011327223800;     BAS[ATNO][  2].d[ 14] =         0.472974344705;
  BAS[ATNO][  2].a[ 15] =         0.149198520900;     BAS[ATNO][  2].d[ 15] =         0.017812818760;
  BAS[ATNO][  2].a[ 16] =         0.051441873000;     BAS[ATNO][  2].d[ 16] =        -0.006155354751;

  // Basis function   4 L = s
  InitBFNGauss(BAS[ATNO][  3]);
  BAS[ATNO][  3].l  = 0;
  BAS[ATNO][  3].ng = 17;
  BAS[ATNO][  3].a[  0] =    405924.310279999976;     BAS[ATNO][  3].d[  0] =        -0.000007064303;
  BAS[ATNO][  3].a[  1] =     60846.955735000003;     BAS[ATNO][  3].d[  1] =        -0.000054778317;
  BAS[ATNO][  3].a[  2] =     13847.343091999999;     BAS[ATNO][  3].d[  2] =        -0.000284918036;
  BAS[ATNO][  3].a[  3] =      3919.615855100000;     BAS[ATNO][  3].d[  3] =        -0.001158936861;
  BAS[ATNO][  3].a[  4] =      1276.359416700000;     BAS[ATNO][  3].d[  4] =        -0.003778888683;
  BAS[ATNO][  3].a[  5] =       458.672544350000;     BAS[ATNO][  3].d[  5] =        -0.008995175985;
  BAS[ATNO][  3].a[  6] =       178.287252460000;     BAS[ATNO][  3].d[  6] =        -0.012933517874;
  BAS[ATNO][  3].a[  7] =        70.612192837000;     BAS[ATNO][  3].d[  7] =        -0.006867546930;
  BAS[ATNO][  3].a[  8] =       443.880779500000;     BAS[ATNO][  3].d[  8] =        -0.002362195069;
  BAS[ATNO][  3].a[  9] =       137.558752670000;     BAS[ATNO][  3].d[  9] =        -0.011195960918;
  BAS[ATNO][  3].a[ 10] =        22.268083479000;     BAS[ATNO][  3].d[ 10] =         0.052453262287;
  BAS[ATNO][  3].a[ 11] =         9.521731060600;     BAS[ATNO][  3].d[ 11] =         0.049859003553;
  BAS[ATNO][  3].a[ 12] =        14.874114065000;     BAS[ATNO][  3].d[ 12] =         0.084788413669;
  BAS[ATNO][  3].a[ 13] =         2.464751761200;     BAS[ATNO][  3].d[ 13] =        -0.263038668891;
  BAS[ATNO][  3].a[ 14] =         1.011327223800;     BAS[ATNO][  3].d[ 14] =        -0.244920459757;
  BAS[ATNO][  3].a[ 15] =         0.149198520900;     BAS[ATNO][  3].d[ 15] =         0.739991268888;
  BAS[ATNO][  3].a[ 16] =         0.051441873000;     BAS[ATNO][  3].d[ 16] =         0.401908467632;

  // Basis function   5 L = s
  InitBFNGauss(BAS[ATNO][  4]);
  BAS[ATNO][  4].l  = 0;
  BAS[ATNO][  4].ng = 17;
  BAS[ATNO][  4].a[  0] =    405924.310279999976;     BAS[ATNO][  4].d[  0] =        -0.000005643241;
  BAS[ATNO][  4].a[  1] =     60846.955735000003;     BAS[ATNO][  4].d[  1] =        -0.000043759063;
  BAS[ATNO][  4].a[  2] =     13847.343091999999;     BAS[ATNO][  4].d[  2] =        -0.000227603674;
  BAS[ATNO][  4].a[  3] =      3919.615855100000;     BAS[ATNO][  4].d[  3] =        -0.000925804104;
  BAS[ATNO][  4].a[  4] =      1276.359416700000;     BAS[ATNO][  4].d[  4] =        -0.003018724118;
  BAS[ATNO][  4].a[  5] =       458.672544350000;     BAS[ATNO][  4].d[  5] =        -0.007185698485;
  BAS[ATNO][  4].a[  6] =       178.287252460000;     BAS[ATNO][  4].d[  6] =        -0.010331800061;
  BAS[ATNO][  4].a[  7] =        70.612192837000;     BAS[ATNO][  4].d[  7] =        -0.005486065159;
  BAS[ATNO][  4].a[  8] =       443.880779500000;     BAS[ATNO][  4].d[  8] =        -0.002132013567;
  BAS[ATNO][  4].a[  9] =       137.558752670000;     BAS[ATNO][  4].d[  9] =        -0.010104982814;
  BAS[ATNO][  4].a[ 10] =        22.268083479000;     BAS[ATNO][  4].d[ 10] =         0.047342011805;
  BAS[ATNO][  4].a[ 11] =         9.521731060600;     BAS[ATNO][  4].d[ 11] =         0.045000547761;
  BAS[ATNO][  4].a[ 12] =        14.874114065000;     BAS[ATNO][  4].d[ 12] =         0.062127943015;
  BAS[ATNO][  4].a[ 13] =         2.464751761200;     BAS[ATNO][  4].d[ 13] =        -0.192739204855;
  BAS[ATNO][  4].a[ 14] =         1.011327223800;     BAS[ATNO][  4].d[ 14] =        -0.322456618149;
  BAS[ATNO][  4].a[ 15] =         0.149198520900;     BAS[ATNO][  4].d[ 15] =         1.875368632002;
  BAS[ATNO][  4].a[ 16] =         0.051441873000;     BAS[ATNO][  4].d[ 16] =        -1.775965879464;

  // Basis function   6 L = s
  InitBFNGauss(BAS[ATNO][  5]);
  BAS[ATNO][  5].l  = 0;
  BAS[ATNO][  5].ng = 17;
  BAS[ATNO][  5].a[  0] =    405924.310279999976;     BAS[ATNO][  5].d[  0] =        -0.000039480112;
  BAS[ATNO][  5].a[  1] =     60846.955735000003;     BAS[ATNO][  5].d[  1] =        -0.000306138368;
  BAS[ATNO][  5].a[  2] =     13847.343091999999;     BAS[ATNO][  5].d[  2] =        -0.001592315118;
  BAS[ATNO][  5].a[  3] =      3919.615855100000;     BAS[ATNO][  5].d[  3] =        -0.006476924761;
  BAS[ATNO][  5].a[  4] =      1276.359416700000;     BAS[ATNO][  5].d[  4] =        -0.021118991470;
  BAS[ATNO][  5].a[  5] =       458.672544350000;     BAS[ATNO][  5].d[  5] =        -0.050271140752;
  BAS[ATNO][  5].a[  6] =       178.287252460000;     BAS[ATNO][  5].d[  6] =        -0.072281264820;
  BAS[ATNO][  5].a[  7] =        70.612192837000;     BAS[ATNO][  5].d[  7] =        -0.038380507388;
  BAS[ATNO][  5].a[  8] =       443.880779500000;     BAS[ATNO][  5].d[  8] =         0.001755337324;
  BAS[ATNO][  5].a[  9] =       137.558752670000;     BAS[ATNO][  5].d[  9] =         0.008319671958;
  BAS[ATNO][  5].a[ 10] =        22.268083479000;     BAS[ATNO][  5].d[ 10] =        -0.038977800885;
  BAS[ATNO][  5].a[ 11] =         9.521731060600;     BAS[ATNO][  5].d[ 11] =        -0.037050018018;
  BAS[ATNO][  5].a[ 12] =        14.874114065000;     BAS[ATNO][  5].d[ 12] =         0.881175659469;
  BAS[ATNO][  5].a[ 13] =         2.464751761200;     BAS[ATNO][  5].d[ 13] =        -2.733666812430;
  BAS[ATNO][  5].a[ 14] =         1.011327223800;     BAS[ATNO][  5].d[ 14] =         2.816117184492;
  BAS[ATNO][  5].a[ 15] =         0.149198520900;     BAS[ATNO][  5].d[ 15] =        -1.156859979189;
  BAS[ATNO][  5].a[ 16] =         0.051441873000;     BAS[ATNO][  5].d[ 16] =         0.532921602708;

  // Basis function   7 L = p
  InitBFNGauss(BAS[ATNO][  6]);
  BAS[ATNO][  6].l  = 1;
  BAS[ATNO][  6].ng = 13;
  BAS[ATNO][  6].a[  0] =      2205.350853400000;     BAS[ATNO][  6].d[  0] =         0.002617834716;
  BAS[ATNO][  6].a[  1] =       522.353006990000;     BAS[ATNO][  6].d[  1] =         0.021330518804;
  BAS[ATNO][  6].a[  2] =       167.730555420000;     BAS[ATNO][  6].d[  2] =         0.100825007823;
  BAS[ATNO][  6].a[  3] =        62.670045373000;     BAS[ATNO][  6].d[  3] =         0.292684819232;
  BAS[ATNO][  6].a[  4] =        25.109749456000;     BAS[ATNO][  6].d[  4] =         0.474653616369;
  BAS[ATNO][  6].a[  5] =        10.225142681000;     BAS[ATNO][  6].d[  5] =         0.275936030349;
  BAS[ATNO][  6].a[  6] =        40.713442521000;     BAS[ATNO][  6].d[  6] =        -0.000528504028;
  BAS[ATNO][  6].a[  7] =         5.624709069600;     BAS[ATNO][  6].d[  7] =         0.009780909477;
  BAS[ATNO][  6].a[  8] =         2.227994911600;     BAS[ATNO][  6].d[  8] =         0.016821681565;
  BAS[ATNO][  6].a[  9] =         0.833547416900;     BAS[ATNO][  6].d[  9] =        -0.005976710140;
  BAS[ATNO][  6].a[ 10] =         0.162455000000;     BAS[ATNO][  6].d[ 10] =         0.001805718995;
  BAS[ATNO][  6].a[ 11] =         0.047769000000;     BAS[ATNO][  6].d[ 11] =        -0.001209171499;
  BAS[ATNO][  6].a[ 12] =         0.021234841500;     BAS[ATNO][  6].d[ 12] =         0.000569354742;

  // Basis function   8 L = p
  InitBFNGauss(BAS[ATNO][  7]);
  BAS[ATNO][  7].l  = 1;
  BAS[ATNO][  7].ng = 13;
  BAS[ATNO][  7].a[  0] =      2205.350853400000;     BAS[ATNO][  7].d[  0] =        -0.001023069106;
  BAS[ATNO][  7].a[  1] =       522.353006990000;     BAS[ATNO][  7].d[  1] =        -0.008336124000;
  BAS[ATNO][  7].a[  2] =       167.730555420000;     BAS[ATNO][  7].d[  2] =        -0.039403156353;
  BAS[ATNO][  7].a[  3] =        62.670045373000;     BAS[ATNO][  7].d[  3] =        -0.114383385069;
  BAS[ATNO][  7].a[  4] =        25.109749456000;     BAS[ATNO][  7].d[  4] =        -0.185498132489;
  BAS[ATNO][  7].a[  5] =        10.225142681000;     BAS[ATNO][  7].d[  5] =        -0.107837834899;
  BAS[ATNO][  7].a[  6] =        40.713442521000;     BAS[ATNO][  7].d[  6] =        -0.018555986308;
  BAS[ATNO][  7].a[  7] =         5.624709069600;     BAS[ATNO][  7].d[  7] =         0.343411616136;
  BAS[ATNO][  7].a[  8] =         2.227994911600;     BAS[ATNO][  7].d[  8] =         0.590615920341;
  BAS[ATNO][  7].a[  9] =         0.833547416900;     BAS[ATNO][  7].d[  9] =         0.257369521689;
  BAS[ATNO][  7].a[ 10] =         0.162455000000;     BAS[ATNO][  7].d[ 10] =         0.009874990486;
  BAS[ATNO][  7].a[ 11] =         0.047769000000;     BAS[ATNO][  7].d[ 11] =        -0.003993660415;
  BAS[ATNO][  7].a[ 12] =         0.021234841500;     BAS[ATNO][  7].d[ 12] =         0.001753695256;

  // Basis function   9 L = p
  InitBFNGauss(BAS[ATNO][  8]);
  BAS[ATNO][  8].l  = 1;
  BAS[ATNO][  8].ng = 13;
  BAS[ATNO][  8].a[  0] =      2205.350853400000;     BAS[ATNO][  8].d[  0] =         0.000145225336;
  BAS[ATNO][  8].a[  1] =       522.353006990000;     BAS[ATNO][  8].d[  1] =         0.001183318311;
  BAS[ATNO][  8].a[  2] =       167.730555420000;     BAS[ATNO][  8].d[  2] =         0.005593304083;
  BAS[ATNO][  8].a[  3] =        62.670045373000;     BAS[ATNO][  8].d[  3] =         0.016236797100;
  BAS[ATNO][  8].a[  4] =        25.109749456000;     BAS[ATNO][  8].d[  4] =         0.026331582491;
  BAS[ATNO][  8].a[  5] =        10.225142681000;     BAS[ATNO][  8].d[  5] =         0.015307651927;
  BAS[ATNO][  8].a[  6] =        40.713442521000;     BAS[ATNO][  8].d[  6] =         0.003258609317;
  BAS[ATNO][  8].a[  7] =         5.624709069600;     BAS[ATNO][  8].d[  7] =        -0.060306376253;
  BAS[ATNO][  8].a[  8] =         2.227994911600;     BAS[ATNO][  8].d[  8] =        -0.103717825023;
  BAS[ATNO][  8].a[  9] =         0.833547416900;     BAS[ATNO][  8].d[  9] =        -0.009906246678;
  BAS[ATNO][  8].a[ 10] =         0.162455000000;     BAS[ATNO][  8].d[ 10] =         0.431241245255;
  BAS[ATNO][  8].a[ 11] =         0.047769000000;     BAS[ATNO][  8].d[ 11] =         0.460827644063;
  BAS[ATNO][  8].a[ 12] =         0.021234841500;     BAS[ATNO][  8].d[ 12] =         0.270762644419;

  // Basis function  10 L = p
  InitBFNGauss(BAS[ATNO][  9]);
  BAS[ATNO][  9].l  = 1;
  BAS[ATNO][  9].ng = 13;
  BAS[ATNO][  9].a[  0] =      2205.350853400000;     BAS[ATNO][  9].d[  0] =        -0.000099334176;
  BAS[ATNO][  9].a[  1] =       522.353006990000;     BAS[ATNO][  9].d[  1] =        -0.000809390102;
  BAS[ATNO][  9].a[  2] =       167.730555420000;     BAS[ATNO][  9].d[  2] =        -0.003825821778;
  BAS[ATNO][  9].a[  3] =        62.670045373000;     BAS[ATNO][  9].d[  3] =        -0.011105974398;
  BAS[ATNO][  9].a[  4] =        25.109749456000;     BAS[ATNO][  9].d[  4] =        -0.018010810828;
  BAS[ATNO][  9].a[  5] =        10.225142681000;     BAS[ATNO][  9].d[  5] =        -0.010470438804;
  BAS[ATNO][  9].a[  6] =        40.713442521000;     BAS[ATNO][  9].d[  6] =        -0.002263706626;
  BAS[ATNO][  9].a[  7] =         5.624709069600;     BAS[ATNO][  9].d[  7] =         0.041893927807;
  BAS[ATNO][  9].a[  8] =         2.227994911600;     BAS[ATNO][  9].d[  8] =         0.072051204926;
  BAS[ATNO][  9].a[  9] =         0.833547416900;     BAS[ATNO][  9].d[  9] =        -0.002006520144;
  BAS[ATNO][  9].a[ 10] =         0.162455000000;     BAS[ATNO][  9].d[ 10] =        -0.249968346742;
  BAS[ATNO][  9].a[ 11] =         0.047769000000;     BAS[ATNO][  9].d[ 11] =        -1.076631043045;
  BAS[ATNO][  9].a[ 12] =         0.021234841500;     BAS[ATNO][  9].d[ 12] =         1.563972989206;

  // Basis function  11 L = p
  InitBFNGauss(BAS[ATNO][ 10]);
  BAS[ATNO][ 10].l  = 1;
  BAS[ATNO][ 10].ng = 13;
  BAS[ATNO][ 10].a[  0] =      2205.350853400000;     BAS[ATNO][ 10].d[  0] =        -0.000207063512;
  BAS[ATNO][ 10].a[  1] =       522.353006990000;     BAS[ATNO][ 10].d[  1] =        -0.001687185254;
  BAS[ATNO][ 10].a[  2] =       167.730555420000;     BAS[ATNO][ 10].d[  2] =        -0.007974980261;
  BAS[ATNO][ 10].a[  3] =        62.670045373000;     BAS[ATNO][ 10].d[  3] =        -0.023150562610;
  BAS[ATNO][ 10].a[  4] =        25.109749456000;     BAS[ATNO][ 10].d[  4] =        -0.037543792987;
  BAS[ATNO][ 10].a[  5] =        10.225142681000;     BAS[ATNO][ 10].d[  5] =        -0.021825779566;
  BAS[ATNO][ 10].a[  6] =        40.713442521000;     BAS[ATNO][ 10].d[  6] =        -0.004632371581;
  BAS[ATNO][ 10].a[  7] =         5.624709069600;     BAS[ATNO][ 10].d[  7] =         0.085730296661;
  BAS[ATNO][ 10].a[  8] =         2.227994911600;     BAS[ATNO][ 10].d[  8] =         0.147443113991;
  BAS[ATNO][ 10].a[  9] =         0.833547416900;     BAS[ATNO][ 10].d[  9] =         0.054205604433;
  BAS[ATNO][ 10].a[ 10] =         0.162455000000;     BAS[ATNO][ 10].d[ 10] =        -1.425690566889;
  BAS[ATNO][ 10].a[ 11] =         0.047769000000;     BAS[ATNO][ 10].d[ 11] =         2.137833983126;
  BAS[ATNO][ 10].a[ 12] =         0.021234841500;     BAS[ATNO][ 10].d[ 12] =        -1.155109734345;

  // Basis function  12 L = p
  InitBFNGauss(BAS[ATNO][ 11]);
  BAS[ATNO][ 11].l  = 1;
  BAS[ATNO][ 11].ng = 13;
  BAS[ATNO][ 11].a[  0] =      2205.350853400000;     BAS[ATNO][ 11].d[  0] =         0.000852693355;
  BAS[ATNO][ 11].a[  1] =       522.353006990000;     BAS[ATNO][ 11].d[  1] =         0.006947876244;
  BAS[ATNO][ 11].a[  2] =       167.730555420000;     BAS[ATNO][ 11].d[  2] =         0.032841192614;
  BAS[ATNO][ 11].a[  3] =        62.670045373000;     BAS[ATNO][ 11].d[  3] =         0.095334666777;
  BAS[ATNO][ 11].a[  4] =        25.109749456000;     BAS[ATNO][ 11].d[  4] =         0.154606393559;
  BAS[ATNO][ 11].a[  5] =        10.225142681000;     BAS[ATNO][ 11].d[  5] =         0.089879173010;
  BAS[ATNO][ 11].a[  6] =        40.713442521000;     BAS[ATNO][ 11].d[  6] =         0.025122582933;
  BAS[ATNO][ 11].a[  7] =         5.624709069600;     BAS[ATNO][ 11].d[  7] =        -0.464938196404;
  BAS[ATNO][ 11].a[  8] =         2.227994911600;     BAS[ATNO][ 11].d[  8] =        -0.799623215605;
  BAS[ATNO][ 11].a[  9] =         0.833547416900;     BAS[ATNO][ 11].d[  9] =         1.603401962625;
  BAS[ATNO][ 11].a[ 10] =         0.162455000000;     BAS[ATNO][ 11].d[ 10] =        -0.923931917220;
  BAS[ATNO][ 11].a[ 11] =         0.047769000000;     BAS[ATNO][ 11].d[ 11] =         0.644450240389;
  BAS[ATNO][ 11].a[ 12] =         0.021234841500;     BAS[ATNO][ 11].d[ 12] =        -0.300169364522;

  // Basis function  13 L = d
  InitBFNGauss(BAS[ATNO][ 12]);
  BAS[ATNO][ 12].l  = 2;
  BAS[ATNO][ 12].ng = 7;
  BAS[ATNO][ 12].a[  0] =        88.554315311000;     BAS[ATNO][ 12].d[  0] =         0.012706398366;
  BAS[ATNO][ 12].a[  1] =        25.721525557000;     BAS[ATNO][ 12].d[  1] =         0.079258694889;
  BAS[ATNO][ 12].a[  2] =         9.127836762400;     BAS[ATNO][ 12].d[  2] =         0.244496138867;
  BAS[ATNO][ 12].a[  3] =         3.431236406400;     BAS[ATNO][ 12].d[  3] =         0.403214381696;
  BAS[ATNO][ 12].a[  4] =         1.230892064500;     BAS[ATNO][ 12].d[  4] =         0.381168856915;
  BAS[ATNO][ 12].a[  5] =         0.390318451100;     BAS[ATNO][ 12].d[  5] =         0.231564619496;
  BAS[ATNO][ 12].a[  6] =         0.124000000000;     BAS[ATNO][ 12].d[  6] =         0.043053922061;

  // Basis function  14 L = d
  InitBFNGauss(BAS[ATNO][ 13]);
  BAS[ATNO][ 13].l  = 2;
  BAS[ATNO][ 13].ng = 7;
  BAS[ATNO][ 13].a[  0] =        88.554315311000;     BAS[ATNO][ 13].d[  0] =        -0.003264713732;
  BAS[ATNO][ 13].a[  1] =        25.721525557000;     BAS[ATNO][ 13].d[  1] =        -0.020364303253;
  BAS[ATNO][ 13].a[  2] =         9.127836762400;     BAS[ATNO][ 13].d[  2] =        -0.062819524384;
  BAS[ATNO][ 13].a[  3] =         3.431236406400;     BAS[ATNO][ 13].d[  3] =        -0.103599736994;
  BAS[ATNO][ 13].a[  4] =         1.230892064500;     BAS[ATNO][ 13].d[  4] =        -0.062826925821;
  BAS[ATNO][ 13].a[  5] =         0.390318451100;     BAS[ATNO][ 13].d[  5] =        -0.120538610261;
  BAS[ATNO][ 13].a[  6] =         0.124000000000;     BAS[ATNO][ 13].d[  6] =         1.050895809637;

  // Basis function  15 L = d
  InitBFNGauss(BAS[ATNO][ 14]);
  BAS[ATNO][ 14].l  = 2;
  BAS[ATNO][ 14].ng = 7;
  BAS[ATNO][ 14].a[  0] =        88.554315311000;     BAS[ATNO][ 14].d[  0] =        -0.007104863743;
  BAS[ATNO][ 14].a[  1] =        25.721525557000;     BAS[ATNO][ 14].d[  1] =        -0.044318005104;
  BAS[ATNO][ 14].a[  2] =         9.127836762400;     BAS[ATNO][ 14].d[  2] =        -0.136711576506;
  BAS[ATNO][ 14].a[  3] =         3.431236406400;     BAS[ATNO][ 14].d[  3] =        -0.225459894979;
  BAS[ATNO][ 14].a[  4] =         1.230892064500;     BAS[ATNO][ 14].d[  4] =        -0.328347848575;
  BAS[ATNO][ 14].a[  5] =         0.390318451100;     BAS[ATNO][ 14].d[  5] =         1.340987741010;
  BAS[ATNO][ 14].a[  6] =         0.124000000000;     BAS[ATNO][ 14].d[  6] =        -0.686026906273;

  // Basis function  16 L = d
  InitBFNGauss(BAS[ATNO][ 15]);
  BAS[ATNO][ 15].l  = 2;
  BAS[ATNO][ 15].ng = 7;
  BAS[ATNO][ 15].a[  0] =        88.554315311000;     BAS[ATNO][ 15].d[  0] =        -0.018706586114;
  BAS[ATNO][ 15].a[  1] =        25.721525557000;     BAS[ATNO][ 15].d[  1] =        -0.116686063079;
  BAS[ATNO][ 15].a[  2] =         9.127836762400;     BAS[ATNO][ 15].d[  2] =        -0.359951572786;
  BAS[ATNO][ 15].a[  3] =         3.431236406400;     BAS[ATNO][ 15].d[  3] =        -0.593619398385;
  BAS[ATNO][ 15].a[  4] =         1.230892064500;     BAS[ATNO][ 15].d[  4] =         1.422174408665;
  BAS[ATNO][ 15].a[  5] =         0.390318451100;     BAS[ATNO][ 15].d[  5] =        -0.833413096893;
  BAS[ATNO][ 15].a[  6] =         0.124000000000;     BAS[ATNO][ 15].d[  6] =         0.280382069746;

  // Basis function  17 L = f
  InitBFNGauss(BAS[ATNO][ 16]);
  BAS[ATNO][ 16].l  = 3;
  BAS[ATNO][ 16].ng = 2;
  BAS[ATNO][ 16].a[  0] =         1.433000000000;     BAS[ATNO][ 16].d[  0] =         0.982238523007;
  BAS[ATNO][ 16].a[  1] =         5.694000000000;     BAS[ATNO][ 16].d[  1] =         0.045617471046;

  // Basis function  18 L = f
  InitBFNGauss(BAS[ATNO][ 17]);
  BAS[ATNO][ 17].l  = 3;
  BAS[ATNO][ 17].ng = 2;
  BAS[ATNO][ 17].a[  0] =         1.433000000000;     BAS[ATNO][ 17].d[  0] =        -0.439864006840;
  BAS[ATNO][ 17].a[  1] =         5.694000000000;     BAS[ATNO][ 17].d[  1] =         1.075263645311;

  // Basis function  19 L = g
  InitBFNGauss(BAS[ATNO][ 18]);
  BAS[ATNO][ 18].l  = 4;
  BAS[ATNO][ 18].ng = 1;
  BAS[ATNO][ 18].a[  0] =         3.617000000000;     BAS[ATNO][ 18].d[  0] =         1.000000000000;

-------
TIMINGS
-------

Total SCF time: 0 days 0 hours 0 min 0 sec 

Total time                  ....       0.957 sec
Sum of individual times     ....       0.865 sec  ( 90.4%)

Fock matrix formation       ....       0.656 sec  ( 68.6%)
  Split-RI-J                ....       0.559 sec  ( 85.3% of F)
  XC integration            ....       0.067 sec  ( 10.3% of F)
    Basis function eval.    ....       0.005 sec  (  7.3% of XC)
    Density eval.           ....       0.005 sec  (  8.0% of XC)
    XC-Functional eval.     ....       0.006 sec  (  9.0% of XC)
    XC-Potential eval.      ....       0.010 sec  ( 14.4% of XC)
Diagonalization             ....       0.006 sec  (  0.6%)
Density matrix formation    ....       0.002 sec  (  0.2%)
Population analysis         ....       0.003 sec  (  0.3%)
Initial guess               ....       0.079 sec  (  8.3%)
Orbital Transformation      ....       0.000 sec  (  0.0%)
Orbital Orthonormalization  ....       0.000 sec  (  0.0%)
DIIS solution               ....       0.003 sec  (  0.3%)
Grid generation             ....       0.117 sec  ( 12.2%)


-------------------------------------------------------------------------------
                          DFT DISPERSION CORRECTION                            
                                                                               
                              DFTD3 V3.1  Rev 1                                
                          USING Becke-Johnson damping                          
-------------------------------------------------------------------------------
The TPSS functional is recognized
Active option DFTDOPT                   ...         4   

molecular C6(AA) [au] = 340.521234 


            DFT-D V3
 parameters
 s6 scaling factor         :     1.0000 
 a1 scaling factor         :     0.4535 
 s8 scaling factor         :     1.9435 
 a2 scaling factor         :     4.4752 
 ad hoc parameters k1-k3   :    16.0000     1.3333    -4.0000 

 Edisp/kcal,au: -0.000000000000  -0.000000000000 
 E6   /kcal   :  -0.000000000 
 E8   /kcal   :  -0.000000000 
 % E8         :          -nan 

-------------------------   ----------------
Dispersion correction            0.000000000
-------------------------   ----------------


-------------------------   --------------------
FINAL SINGLE POINT ENERGY     -1779.403863764333
-------------------------   --------------------


                            ***************************************
                            *     ORCA property calculations      *
                            ***************************************

                                    ---------------------
                                    Active property flags
                                    ---------------------
   (+) Dipole Moment


------------------------------------------------------------------------------
                       ORCA ELECTRIC PROPERTIES CALCULATION
------------------------------------------------------------------------------

Dipole Moment Calculation                       ... on
Quadrupole Moment Calculation                   ... off
Polarizability Calculation                      ... off
GBWName                                         ... TMD14_Zn.gbw
Electron density file                           ... TMD14_Zn.scfp
The origin for moment calculation is the CENTER OF MASS  = ( 0.000000,  0.000000  0.000000)

-------------
DIPOLE MOMENT
-------------
                                X             Y             Z
Electronic contribution:     -0.00000       0.00000      -0.00000
Nuclear contribution   :      0.00000       0.00000       0.00000
                        -----------------------------------------
Total Dipole Moment    :     -0.00000       0.00000      -0.00000
                        -----------------------------------------
Magnitude (a.u.)       :      0.00000
Magnitude (Debye)      :      0.00000



--------------------
Rotational spectrum 
--------------------
 
Rotational constants in cm-1:     0.000000     0.000000     0.000000 
Rotational constants in MHz :     0.000000     0.000000     0.000000 

 Dipole components along the rotational axes: 
x,y,z [a.u.] :    -0.000000     0.000000    -0.000000 
x,y,z [Debye]:    -0.000000     0.000000    -0.000000 

 

Timings for individual modules:

Sum of individual times         ...        1.829 sec (=   0.030 min)
GTO integral calculation        ...        0.550 sec (=   0.009 min)  30.1 %
SCF iterations                  ...        1.279 sec (=   0.021 min)  69.9 %
                             ****ORCA TERMINATED NORMALLY****
TOTAL RUN TIME: 0 days 0 hours 0 minutes 2 seconds 309 msec
