
                                 *****************
                                 * O   R   C   A *
                                 *****************

           --- An Ab Initio, DFT and Semiempirical electronic structure package ---

                  #######################################################
                  #                        -***-                        #
                  #          Department of theory and spectroscopy      #
                  #               Directorship: Frank Neese             #
                  #        Max Planck Institute fuer Kohlenforschung    #
                  #                Kaiser Wilhelm Platz 1               #
                  #                 D-45470 Muelheim/Ruhr               #
                  #                      Germany                        #
                  #                                                     #
                  #                  All rights reserved                #
                  #                        -***-                        #
                  #######################################################


                         Program Version 4.2.0 -  RELEASE  -


 With contributions from (in alphabetic order):
   Daniel Aravena         : Magnetic Suceptibility
   Michael Atanasov       : Ab Initio Ligand Field Theory (pilot matlab implementation)
   Alexander A. Auer      : GIAO ZORA, VPT2
   Ute Becker             : Parallelization
   Giovanni Bistoni       : ED, misc. LED, open-shell LED, HFLED
   Martin Brehm           : Molecular dynamics
   Dmytro Bykov           : SCF Hessian
   Vijay G. Chilkuri      : MRCI spin determinant printing, contributions to CSF-ICE
   Dipayan Datta          : RHF DLPNO-CCSD density
   Achintya Kumar Dutta   : EOM-CC, STEOM-CC
   Dmitry Ganyushin       : Spin-Orbit,Spin-Spin,Magnetic field MRCI
   Miquel Garcia          : C-PCM Hessian, Gaussian charge scheme
   Yang Guo               : DLPNO-NEVPT2, CIM, IAO-localization
   Andreas Hansen         : Spin unrestricted coupled pair/coupled cluster methods
   Benjamin Helmich-Paris : CASSCF linear response (MC-RPA)
   Lee Huntington         : MR-EOM, pCC
   Robert Izsak           : Overlap fitted RIJCOSX, COSX-SCS-MP3, EOM
   Christian Kollmar      : KDIIS, OOCD, Brueckner-CCSD(T), CCSD density
   Simone Kossmann        : Meta GGA functionals, TD-DFT gradient, OOMP2, MP2 Hessian
   Martin Krupicka        : AUTO-CI
   Lucas Lang             : DCDCAS
   Dagmar Lenk            : GEPOL surface, SMD
   Dimitrios Liakos       : Extrapolation schemes; Compound Job, initial MDCI parallelization
   Dimitrios Manganas     : Further ROCIS development; embedding schemes
   Dimitrios Pantazis     : SARC Basis sets
   Taras Petrenko         : DFT Hessian,TD-DFT gradient, ASA, ECA, R-Raman, ABS, FL, XAS/XES, NRVS
   Peter Pinski           : DLPNO-MP2, DLPNO-MP2 Gradient
   Christoph Reimann      : Effective Core Potentials
   Marius Retegan         : Local ZFS, SOC
   Christoph Riplinger    : Optimizer, TS searches, QM/MM, DLPNO-CCSD(T), (RO)-DLPNO pert. Triples
   Tobias Risthaus        : Range-separated hybrids, TD-DFT gradient, RPA, STAB
   Michael Roemelt        : Original ROCIS implementation
   Masaaki Saitow         : Open-shell DLPNO-CCSD energy and density
   Barbara Sandhoefer     : DKH picture change effects
   Avijit Sen             : IP-ROCIS
   Kantharuban Sivalingam : CASSCF convergence, NEVPT2, FIC-MRCI
   Bernardo de Souza      : ESD, SOC TD-DFT
   Georgi Stoychev        : AutoAux, RI-MP2 NMR
   Willem Van den Heuvel  : Paramagnetic NMR
   Boris Wezisla          : Elementary symmetry handling
   Frank Wennmohs         : Technical directorship


 We gratefully acknowledge several colleagues who have allowed us to
 interface, adapt or use parts of their codes:
   Stefan Grimme, W. Hujo, H. Kruse,             : VdW corrections, initial TS optimization,
                  C. Bannwarth                     DFT functionals, gCP, sTDA/sTD-DF
   Ed Valeev, F. Pavosevic, A. Kumar             : LibInt (2-el integral package), F12 methods
   Garnet Chan, S. Sharma, J. Yang, R. Olivares  : DMRG
   Ulf Ekstrom                                   : XCFun DFT Library
   Mihaly Kallay                                 : mrcc  (arbitrary order and MRCC methods)
   Andreas Klamt, Michael Diedenhofen            : otool_cosmo (COSMO solvation model)
   Jiri Pittner, Ondrej Demel                    : Mk-CCSD
   Frank Weinhold                                : gennbo (NPA and NBO analysis)
   Christopher J. Cramer and Donald G. Truhlar   : smd solvation model
   Lars Goerigk                                  : TD-DFT with DH, B97 family of functionals
   V. Asgeirsson, H. Jonsson                     : NEB implementation
   FAccTs GmbH                                   : IRC, NEB, NEB-TS, Multilevel, MM, QM/MM, CI optimization
   S Lehtola, MJT Oliveira, MAL Marques          : LibXC Library


 Your calculation uses the libint2 library for the computation of 2-el integrals
 For citations please refer to: http://libint.valeyev.net

 Your ORCA version has been built with support for libXC version: 4.2.3
 For citations please refer to: https://tddft.org/programs/libxc/

 This ORCA versions uses:
   CBLAS   interface :  Fast vector & matrix operations
   LAPACKE interface :  Fast linear algebra routines
   SCALAPACK package :  Parallel linear algebra routines


Your calculation utilizes the atom-pairwise dispersion correction
with the Becke-Johnson damping scheme (D3BJ)
Cite in your paper:
S.Grimme, S.Ehrlich, L.Goerigk, J Comput Chem, (2011), 32, 1456–1465 
S.Grimme, J.Antony, S.Ehrlich and H.Krieg, J.Chem.Phys., 132, (2010), 154104 
   

----- Orbital basis set information -----
Your calculation utilizes the basis: def2-TZVPPD
   F. Weigend and R. Ahlrichs, Phys. Chem. Chem. Phys. 7, 3297 (2005).
   D. Rappoport and F. Furche, J. Chem. Phys. 133 134105 (2010).

----- AuxJ basis set information -----
Your calculation utilizes the auxiliary basis: def2/J
   F. Weigend, Phys. Chem. Chem. Phys. 8, 1057 (2006).

================================================================================
                                        WARNINGS
                       Please study these warnings very carefully!
================================================================================


WARNING: your system is open-shell and RHF/RKS was chosen
  ===> : WILL SWITCH to UHF/UKS


INFO   : the flag for use of LIBINT has been found!

================================================================================
                                       INPUT FILE
================================================================================
NAME = TMD19_FeCl.in
|  1> #
|  2> # TMD19_FeCl TPSS-D3BJ/Def2-TZVPPD
|  3> #
|  4> ! tpss d3bj def2-tzvppd def2/j grid4 nofinalgrid
|  5> 
|  6> *xyz 0 6
|  7> Fe       0.000000    0.000000    0.869767 
|  8> Cl       0.000000    0.000000   -1.330233 
|  9> *
| 10> 
| 11> %maxcore 5000
| 12> 
| 13> %pal
| 14> nprocs = 24
| 15> end
| 16> 
| 17> 
| 18>                          ****END OF INPUT****
================================================================================

                       ****************************
                       * Single Point Calculation *
                       ****************************

---------------------------------
CARTESIAN COORDINATES (ANGSTROEM)
---------------------------------
  Fe     0.000000    0.000000    0.869767
  Cl     0.000000    0.000000   -1.330233

----------------------------
CARTESIAN COORDINATES (A.U.)
----------------------------
  NO LB      ZA    FRAG     MASS         X           Y           Z
   0 Fe   26.0000    0    55.850    0.000000    0.000000    1.643621
   1 Cl   17.0000    0    35.453    0.000000    0.000000   -2.513776

--------------------------------
INTERNAL COORDINATES (ANGSTROEM)
--------------------------------
 Fe     0   0   0     0.000000000000     0.00000000     0.00000000
 Cl     1   0   0     2.200000000000     0.00000000     0.00000000

---------------------------
INTERNAL COORDINATES (A.U.)
---------------------------
 Fe     0   0   0     0.000000000000     0.00000000     0.00000000
 Cl     1   0   0     4.157397494627     0.00000000     0.00000000

---------------------
BASIS SET INFORMATION
---------------------
There are 2 groups of distinct atoms

 Group   1 Type Fe  : 17s13p7d2f1g contracted to 6s6p4d2f1g pattern {842111/631111/4111/11/1}
 Group   2 Type Cl  : 15s10p4d1f contracted to 6s6p4d1f pattern {732111/511111/1111/1}

Atom   0Fe   basis set group =>   1
Atom   1Cl   basis set group =>   2
---------------------------------
AUXILIARY/J BASIS SET INFORMATION
---------------------------------
There are 2 groups of distinct atoms

 Group   1 Type Fe  : 19s5p5d3f3g contracted to 8s5p5d2f3g pattern {121111111/11111/11111/21/111}
 Group   2 Type Cl  : 14s5p5d2f1g contracted to 8s4p3d1f1g pattern {71111111/2111/311/2/1}

Atom   0Fe   basis set group =>   1
Atom   1Cl   basis set group =>   2


           ************************************************************
           *        Program running with 24 parallel MPI-processes    *
           *              working on a common directory               *
           ************************************************************
------------------------------------------------------------------------------
                           ORCA GTO INTEGRAL CALCULATION
                           -- RI-GTO INTEGRALS CHOSEN --
------------------------------------------------------------------------------

                         BASIS SET STATISTICS AND STARTUP INFO

Gaussian basis set:
 # of primitive gaussian shells          ...   70
 # of primitive gaussian functions       ...  186
 # of contracted shells                  ...   36
 # of contracted basis functions         ...  118
 Highest angular momentum                ...    4
 Maximum contraction depth               ...    8
Auxiliary gaussian basis set:
 # of primitive gaussian shells          ...   62
 # of primitive gaussian functions       ...  184
 # of contracted shells                  ...   40
 # of contracted aux-basis functions     ...  140
 Highest angular momentum                ...    4
 Maximum contraction depth               ...   12
Ratio of auxiliary to basis functions    ...  1.19
Integral package used                  ... LIBINT
 One Electron integrals                  ... done
 Ordering auxiliary basis shells         ... done
 Integral threshhold             Thresh  ...  1.000e-10
 Primitive cut-off               TCut    ...  1.000e-11
 Pre-screening matrix                    ... done
 Shell pair data                         ... 
 Ordering of the shell pairs             ... done (   0.000 sec) 644 of 666 pairs
 Determination of significant pairs      ... done (   0.000 sec)
 Creation of shell pair data             ... done (   0.000 sec)
 Storage of shell pair data              ... done (   0.046 sec)
 Shell pair data done in (   0.047 sec)
 Computing two index integrals           ... done
 Cholesky decomposition of the V-matrix  ... done


Timings:
 Total evaluation time                   ...   0.213 sec (  0.004 min)
 One electron matrix time                ...   0.026 sec (  0.000 min) = 12.3%
 Schwartz matrix evaluation time         ...   0.112 sec (  0.002 min) = 52.4%
 Two index repulsion integral time       ...   0.001 sec (  0.000 min) =  0.2%
 Cholesky decomposition of V             ...   0.001 sec (  0.000 min) =  0.4%
 Three index repulsion integral time     ...   0.000 sec (  0.000 min) =  0.0%



           ************************************************************
           *        Program running with 24 parallel MPI-processes    *
           *              working on a common directory               *
           ************************************************************
-------------------------------------------------------------------------------
                                 ORCA SCF
-------------------------------------------------------------------------------

------------
SCF SETTINGS
------------
Hamiltonian:
 Density Functional     Method          .... DFT(GTOs)
 Exchange Functional    Exchange        .... TPSS
 Correlation Functional Correlation     .... TPSS
 LDA part of GGA corr.  LDAOpt          .... PW91-LDA
 Gradients option       PostSCFGGA      .... off
   Density functional embedding theory  .... OFF
   NL short-range parameter             ....  5.000000
 RI-approximation to the Coulomb term is turned on
   Number of auxiliary basis functions  .... 140


General Settings:
 Integral files         IntName         .... TMD19_FeCl
 Hartree-Fock type      HFTyp           .... UHF
 Total Charge           Charge          ....    0
 Multiplicity           Mult            ....    6
 Number of Electrons    NEL             ....   43
 Basis Dimension        Dim             ....  118
 Nuclear Repulsion      ENuc            ....    106.3165118494 Eh

Convergence Acceleration:
 DIIS                   CNVDIIS         .... on
   Start iteration      DIISMaxIt       ....    12
   Startup error        DIISStart       ....  0.200000
   # of expansion vecs  DIISMaxEq       ....     5
   Bias factor          DIISBfac        ....   1.050
   Max. coefficient     DIISMaxC        ....  10.000
 Newton-Raphson         CNVNR           .... off
 SOSCF                  CNVSOSCF        .... off
 Level Shifting         CNVShift        .... on
   Level shift para.    LevelShift      ....    0.2500
   Turn off err/grad.   ShiftErr        ....    0.0010
 Zerner damping         CNVZerner       .... off
 Static damping         CNVDamp         .... on
   Fraction old density DampFac         ....    0.7000
   Max. Damping (<1)    DampMax         ....    0.9800
   Min. Damping (>=0)   DampMin         ....    0.0000
   Turn off err/grad.   DampErr         ....    0.1000
 Fernandez-Rico         CNVRico         .... off

SCF Procedure:
 Maximum # iterations   MaxIter         ....   125
 SCF integral mode      SCFMode         .... Direct
   Integral package                     .... LIBINT
 Reset frequency        DirectResetFreq ....    20
 Integral Threshold     Thresh          ....  1.000e-10 Eh
 Primitive CutOff       TCut            ....  1.000e-11 Eh

Convergence Tolerance:
 Convergence Check Mode ConvCheckMode   .... Total+1el-Energy
 Convergence forced     ConvForced      .... 0
 Energy Change          TolE            ....  1.000e-06 Eh
 1-El. energy change                    ....  1.000e-03 Eh
 DIIS Error             TolErr          ....  1.000e-06


Diagonalization of the overlap matrix:
Smallest eigenvalue                        ... 2.470e-03
Time for diagonalization                   ...    0.004 sec
Threshold for overlap eigenvalues          ... 1.000e-08
Number of eigenvalues below threshold      ... 0
Time for construction of square roots      ...    0.002 sec
Total time needed                          ...    0.006 sec

-------------------
DFT GRID GENERATION
-------------------

General Integration Accuracy     IntAcc      ...  4.670
Radial Grid Type                 RadialGrid  ... Gauss-Chebyshev
Angular Grid (max. acc.)         AngularGrid ... Lebedev-302
Angular grid pruning method      GridPruning ... 3 (G Style)
Weight generation scheme         WeightScheme... Becke
Basis function cutoff            BFCut       ...    1.0000e-10
Integration weight cutoff        WCut        ...    1.0000e-14
Grids for H and He will be reduced by one unit

# of grid points (after initial pruning)     ...  16378 (   0.0 sec)
# of grid points (after weights+screening)   ...  16351 (   0.0 sec)
nearest neighbour list constructed           ...    0.0 sec
Grid point re-assignment to atoms done       ...    0.0 sec
Grid point division into batches done        ...    0.1 sec
Reduced shell lists constructed in    0.1 sec

Total number of grid points                  ...    16351
Total number of batches                      ...      256
Average number of points per batch           ...       63
Average number of grid points per atom       ...     8176
Average number of shells per batch           ...     6.33 (17.59%)
Average number of basis functions per batch  ...    18.00 (15.25%)
Average number of large shells per batch     ...     3.92 (61.84%)
Average number of large basis fcns per batch ...    10.75 (59.72%)
Maximum spatial batch extension              ...  24.49, 24.19, 18.13 au
Average spatial batch extension              ...   0.85,  0.84,  0.66 au

Time for grid setup =    0.148 sec

------------------------------
INITIAL GUESS: MODEL POTENTIAL
------------------------------
Loading Hartree-Fock densities                     ... done
Calculating cut-offs                               ... done
Setting up the integral package                    ... done
Initializing the effective Hamiltonian             ... done
Starting the Coulomb interaction                   ... done (   0.0 sec)
Reading the grid                                   ... done
Mapping shells                                     ... done
Starting the XC term evaluation                    ... done (   0.0 sec)
  promolecular density results
     # of electrons  =     42.999992190
     EX              =    -81.465879759
     EC              =     -1.805133777
     EX+EC           =    -83.271013536
Transforming the Hamiltonian                       ... done (   0.0 sec)
Diagonalizing the Hamiltonian                      ... done (   0.0 sec)
Back transforming the eigenvectors                 ... done (   0.0 sec)
Now organizing SCF variables                       ... done
                      ------------------
                      INITIAL GUESS DONE (   0.2 sec)
                      ------------------
--------------
SCF ITERATIONS
--------------
ITER       Energy         Delta-E        Max-DP      RMS-DP      [F,P]     Damp
               ***  Starting incremental Fock matrix formation  ***
  0  -1723.9719897967   0.000000000000 0.05253806  0.00068743  0.0803463 0.7000
  1  -1723.9866108253  -0.014621028552 0.03119940  0.00039173  0.0317409 0.7000
                               ***Turning on DIIS***
  2  -1723.9897927071  -0.003181881763 0.06310543  0.00080511  0.0398653 0.0000
  3  -1724.0015764040  -0.011783696896 0.01507740  0.00027611  0.0497458 0.0000
  4  -1724.0042520326  -0.002675628685 0.01903632  0.00017846  0.0120147 0.0000
  5  -1724.0048049699  -0.000552937272 0.01151120  0.00010805  0.0028201 0.0000
  6  -1724.0049122219  -0.000107252030 0.00424789  0.00005140  0.0012838 0.0000
  7  -1724.0049420091  -0.000029787170 0.00252029  0.00003079  0.0010151 0.0000
  8  -1724.0049534539  -0.000011444823 0.00379688  0.00004622  0.0004354 0.0000
  9  -1724.0049587339  -0.000005279920 0.00066666  0.00000862  0.0007987 0.0000
 10  -1724.0049601290  -0.000001395096 0.00012085  0.00000299  0.0003043 0.0000
                 **** Energy Check signals convergence ****

               *****************************************************
               *                     SUCCESS                       *
               *           SCF CONVERGED AFTER  11 CYCLES          *
               *****************************************************


----------------
TOTAL SCF ENERGY
----------------

Total Energy       :        -1724.00496044 Eh          -46912.55996 eV

Components:
Nuclear Repulsion  :          106.31651185 Eh            2893.01937 eV
Electronic Energy  :        -1830.32147229 Eh          -49805.57933 eV
One Electron Energy:        -2592.51616095 Eh          -70545.95123 eV
Two Electron Energy:          762.19468866 Eh           20740.37190 eV

Virial components:
Potential Energy   :        -3445.15478200 Eh          -93747.42765 eV
Kinetic Energy     :         1721.14982156 Eh           46834.86768 eV
Virial Ratio       :            2.00165886


DFT components:
N(Alpha)           :       23.999998512493 electrons
N(Beta)            :       18.999999731174 electrons
N(Total)           :       42.999998243667 electrons
E(X)               :      -82.167861632955 Eh       
E(C)               :       -1.793939815256 Eh       
E(XC)              :      -83.961801448211 Eh       
DFET-embed. en.    :        0.000000000000 Eh       

---------------
SCF CONVERGENCE
---------------

  Last Energy change         ...   -3.0909e-07  Tolerance :   1.0000e-06
  Last MAX-Density change    ...    2.9954e-05  Tolerance :   1.0000e-05
  Last RMS-Density change    ...    6.0991e-07  Tolerance :   1.0000e-06
  Last DIIS Error            ...    5.3874e-05  Tolerance :   1.0000e-06

             **** THE GBW FILE WAS UPDATED (TMD19_FeCl.gbw) ****
             **** DENSITY FILE WAS UPDATED (TMD19_FeCl.scfp) ****
             **** ENERGY FILE WAS UPDATED (TMD19_FeCl.en.tmp) ****
----------------------
UHF SPIN CONTAMINATION
----------------------

Warning: in a DFT calculation there is little theoretical justification to 
         calculate <S**2> as in Hartree-Fock theory. We will do it anyways
         but you should keep in mind that the values have only limited relevance

Expectation value of <S**2>     :     8.752979
Ideal value S*(S+1) for S=2.5   :     8.750000
Deviation                       :     0.002979

             **** THE GBW FILE WAS UPDATED (TMD19_FeCl.gbw) ****
             **** DENSITY FILE WAS UPDATED (TMD19_FeCl.scfp) ****
----------------
ORBITAL ENERGIES
----------------
                 SPIN UP ORBITALS
  NO   OCC          E(Eh)            E(eV) 
   0   1.0000    -255.320842     -6947.6333 
   1   1.0000    -100.974612     -2747.6589 
   2   1.0000     -29.741858      -809.3171 
   3   1.0000     -25.630576      -697.4434 
   4   1.0000     -25.603563      -696.7084 
   5   1.0000     -25.603563      -696.7084 
   6   1.0000      -9.224611      -251.0144 
   7   1.0000      -6.999141      -190.4563 
   8   1.0000      -6.996709      -190.3901 
   9   1.0000      -6.996709      -190.3901 
  10   1.0000      -3.461298       -94.1867 
  11   1.0000      -2.288652       -62.2774 
  12   1.0000      -2.237196       -60.8772 
  13   1.0000      -2.237196       -60.8772 
  14   1.0000      -0.741284       -20.1714 
  15   1.0000      -0.377268       -10.2660 
  16   1.0000      -0.351620        -9.5681 
  17   1.0000      -0.351620        -9.5681 
  18   1.0000      -0.326956        -8.8969 
  19   1.0000      -0.301185        -8.1956 
  20   1.0000      -0.287017        -7.8101 
  21   1.0000      -0.278370        -7.5748 
  22   1.0000      -0.278370        -7.5748 
  23   1.0000      -0.180946        -4.9238 
  24   0.0000      -0.054080        -1.4716 
  25   0.0000      -0.054080        -1.4716 
  26   0.0000      -0.002342        -0.0637 
  27   0.0000       0.042290         1.1508 
  28   0.0000       0.057716         1.5705 
  29   0.0000       0.057716         1.5705 
  30   0.0000       0.068980         1.8770 
  31   0.0000       0.079290         2.1576 
  32   0.0000       0.079290         2.1576 
  33   0.0000       0.112173         3.0524 
  34   0.0000       0.127215         3.4617 
  35   0.0000       0.128494         3.4965 
  36   0.0000       0.173697         4.7265 
  37   0.0000       0.174459         4.7473 
  38   0.0000       0.174459         4.7473 
  39   0.0000       0.211323         5.7504 
  40   0.0000       0.211597         5.7578 
  41   0.0000       0.263590         7.1727 
  42   0.0000       0.282268         7.6809 
  43   0.0000       0.282268         7.6809 
  44   0.0000       0.284392         7.7387 
  45   0.0000       0.475326        12.9343 
  46   0.0000       0.475326        12.9343 
  47   0.0000       0.485280        13.2051 
  48   0.0000       0.504900        13.7390 
  49   0.0000       0.504900        13.7390 
  50   0.0000       0.555311        15.1108 
  51   0.0000       0.555475        15.1153 
  52   0.0000       0.575401        15.6575 
  53   0.0000       0.575401        15.6575 
  54   0.0000       0.580303        15.7908 
  55   0.0000       0.727217        19.7886 
  56   0.0000       0.795650        21.6507 
  57   0.0000       0.806363        21.9422 
  58   0.0000       0.857252        23.3270 
  59   0.0000       0.857252        23.3270 
  60   0.0000       0.919339        25.0165 
  61   0.0000       1.121461        30.5165 
  62   0.0000       1.854990        50.4769 
  63   0.0000       1.854990        50.4769 
  64   0.0000       1.855007        50.4773 
  65   0.0000       1.855022        50.4777 
  66   0.0000       1.915894        52.1341 
  67   0.0000       1.959126        53.3105 
  68   0.0000       1.996546        54.3288 
  69   0.0000       1.996546        54.3288 
  70   0.0000       2.034100        55.3507 
  71   0.0000       2.035705        55.3944 
  72   0.0000       2.060995        56.0825 
  73   0.0000       2.060995        56.0825 
  74   0.0000       2.202150        59.9236 
  75   0.0000       2.202150        59.9236 
  76   0.0000       2.211943        60.1900 
  77   0.0000       2.224695        60.5370 
  78   0.0000       2.243721        61.0548 
  79   0.0000       2.243721        61.0548 
  80   0.0000       2.301119        62.6166 
  81   0.0000       2.315306        63.0027 
  82   0.0000       2.315306        63.0027 
  83   0.0000       2.418191        65.8023 
  84   0.0000       2.487571        67.6902 
  85   0.0000       2.487571        67.6902 
  86   0.0000       2.677161        72.8492 
  87   0.0000       3.164597        86.1131 
  88   0.0000       3.283795        89.3566 
  89   0.0000       3.312305        90.1324 
  90   0.0000       3.338962        90.8578 
  91   0.0000       3.338962        90.8578 
  92   0.0000       3.458297        94.1051 
  93   0.0000       8.043298       218.8693 
  94   0.0000       8.043463       218.8737 
  95   0.0000       8.071306       219.6314 
  96   0.0000       8.071306       219.6314 
  97   0.0000       8.154405       221.8926 
  98   0.0000       8.309097       226.1020 
  99   0.0000       8.317872       226.3408 
 100   0.0000       8.317872       226.3408 
 101   0.0000       8.331341       226.7073 
 102   0.0000       8.332243       226.7319 
 103   0.0000       8.339213       226.9215 
 104   0.0000       8.339213       226.9215 
 105   0.0000       8.354481       227.3370 
 106   0.0000       8.357773       227.4266 
 107   0.0000       8.912212       242.5136 
 108   0.0000       8.945935       243.4313 
 109   0.0000       8.946580       243.4488 
 110   0.0000       8.946580       243.4488 
 111   0.0000       8.973563       244.1831 
 112   0.0000       8.973563       244.1831 
 113   0.0000       9.105876       247.7835 
 114   0.0000      10.693057       290.9729 
 115   0.0000      10.693057       290.9729 
 116   0.0000      10.937947       297.6367 
 117   0.0000      24.913628       677.9343 

                 SPIN DOWN ORBITALS
  NO   OCC          E(Eh)            E(eV) 
   0   1.0000    -255.319009     -6947.5835 
   1   1.0000    -100.972635     -2747.6051 
   2   1.0000     -29.680884      -807.6579 
   3   1.0000     -25.573143      -695.8806 
   4   1.0000     -25.558090      -695.4710 
   5   1.0000     -25.558090      -695.4710 
   6   1.0000      -9.223099      -250.9733 
   7   1.0000      -6.996478      -190.3839 
   8   1.0000      -6.994567      -190.3318 
   9   1.0000      -6.994567      -190.3318 
  10   1.0000      -3.305391       -89.9443 
  11   1.0000      -2.103722       -57.2452 
  12   1.0000      -2.095622       -57.0248 
  13   1.0000      -2.095622       -57.0248 
  14   1.0000      -0.730252       -19.8712 
  15   1.0000      -0.333822        -9.0837 
  16   1.0000      -0.288381        -7.8473 
  17   1.0000      -0.288381        -7.8473 
  18   1.0000      -0.220268        -5.9938 
  19   0.0000      -0.184451        -5.0192 
  20   0.0000      -0.172572        -4.6959 
  21   0.0000      -0.172572        -4.6959 
  22   0.0000      -0.141152        -3.8409 
  23   0.0000      -0.115517        -3.1434 
  24   0.0000      -0.015159        -0.4125 
  25   0.0000      -0.015159        -0.4125 
  26   0.0000       0.014379         0.3913 
  27   0.0000       0.065210         1.7745 
  28   0.0000       0.065210         1.7745 
  29   0.0000       0.065709         1.7880 
  30   0.0000       0.101311         2.7568 
  31   0.0000       0.112573         3.0633 
  32   0.0000       0.112573         3.0633 
  33   0.0000       0.141607         3.8533 
  34   0.0000       0.142589         3.8800 
  35   0.0000       0.147980         4.0267 
  36   0.0000       0.182465         4.9651 
  37   0.0000       0.198881         5.4118 
  38   0.0000       0.198881         5.4118 
  39   0.0000       0.226546         6.1646 
  40   0.0000       0.233046         6.3415 
  41   0.0000       0.280540         7.6339 
  42   0.0000       0.293440         7.9849 
  43   0.0000       0.293440         7.9849 
  44   0.0000       0.312526         8.5043 
  45   0.0000       0.508352        13.8330 
  46   0.0000       0.513591        13.9755 
  47   0.0000       0.513591        13.9755 
  48   0.0000       0.514890        14.0109 
  49   0.0000       0.514890        14.0109 
  50   0.0000       0.563055        15.3215 
  51   0.0000       0.563250        15.3268 
  52   0.0000       0.596192        16.2232 
  53   0.0000       0.596192        16.2232 
  54   0.0000       0.617555        16.8045 
  55   0.0000       0.746141        20.3035 
  56   0.0000       0.856747        23.3133 
  57   0.0000       0.886834        24.1320 
  58   0.0000       0.927130        25.2285 
  59   0.0000       0.927130        25.2285 
  60   0.0000       0.959297        26.1038 
  61   0.0000       1.166375        31.7387 
  62   0.0000       1.863306        50.7031 
  63   0.0000       1.863827        50.7173 
  64   0.0000       1.882165        51.2163 
  65   0.0000       1.882165        51.2163 
  66   0.0000       1.944556        52.9141 
  67   0.0000       2.008955        54.6664 
  68   0.0000       2.025380        55.1134 
  69   0.0000       2.025380        55.1134 
  70   0.0000       2.052134        55.8414 
  71   0.0000       2.053863        55.8885 
  72   0.0000       2.071420        56.3662 
  73   0.0000       2.071420        56.3662 
  74   0.0000       2.293897        62.4201 
  75   0.0000       2.293897        62.4201 
  76   0.0000       2.304958        62.7211 
  77   0.0000       2.310925        62.8835 
  78   0.0000       2.310925        62.8835 
  79   0.0000       2.342144        63.7330 
  80   0.0000       2.364005        64.3279 
  81   0.0000       2.364187        64.3328 
  82   0.0000       2.364187        64.3328 
  83   0.0000       2.490301        67.7645 
  84   0.0000       2.562674        69.7339 
  85   0.0000       2.562674        69.7339 
  86   0.0000       2.768766        75.3420 
  87   0.0000       3.230465        87.9054 
  88   0.0000       3.380503        91.9882 
  89   0.0000       3.432322        93.3982 
  90   0.0000       3.466171        94.3193 
  91   0.0000       3.466171        94.3193 
  92   0.0000       3.580613        97.4334 
  93   0.0000       8.046937       218.9683 
  94   0.0000       8.047175       218.9748 
  95   0.0000       8.078951       219.8394 
  96   0.0000       8.078951       219.8394 
  97   0.0000       8.164114       222.1568 
  98   0.0000       8.458129       230.1574 
  99   0.0000       8.463884       230.3140 
 100   0.0000       8.463884       230.3140 
 101   0.0000       8.475163       230.6209 
 102   0.0000       8.475324       230.6253 
 103   0.0000       8.475716       230.6360 
 104   0.0000       8.477841       230.6938 
 105   0.0000       8.477841       230.6938 
 106   0.0000       8.484180       230.8663 
 107   0.0000       9.114869       248.0282 
 108   0.0000       9.131260       248.4742 
 109   0.0000       9.131260       248.4742 
 110   0.0000       9.151800       249.0332 
 111   0.0000       9.168434       249.4858 
 112   0.0000       9.168434       249.4858 
 113   0.0000       9.302536       253.1349 
 114   0.0000      10.697906       291.1048 
 115   0.0000      10.697906       291.1048 
 116   0.0000      10.947529       297.8974 
 117   0.0000      24.917668       678.0442 

                    ********************************
                    * MULLIKEN POPULATION ANALYSIS *
                    ********************************

--------------------------------------------
MULLIKEN ATOMIC CHARGES AND SPIN POPULATIONS
--------------------------------------------
   0 Fe:    0.326326    4.812715
   1 Cl:   -0.326326    0.187285
Sum of atomic charges         :   -0.0000000
Sum of atomic spin populations:    5.0000000

-----------------------------------------------------
MULLIKEN REDUCED ORBITAL CHARGES AND SPIN POPULATIONS
-----------------------------------------------------
CHARGE
  0 Fes       :     7.089694  s :     7.089694
      pz      :     4.249742  p :    12.314009
      px      :     4.032133
      py      :     4.032133
      dz2     :     1.107772  d :     6.267863
      dxz     :     1.080820
      dyz     :     1.080820
      dx2y2   :     0.999721
      dxy     :     1.998731
      f0      :     0.000986  f :     0.002052
      f+1     :     0.000480
      f-1     :     0.000480
      f+2     :     0.000000
      f-2     :     0.000002
      f+3     :     0.000052
      f-3     :     0.000052
      g0      :     0.000011  g :     0.000057
      g+1     :     0.000008
      g-1     :     0.000008
      g+2     :     0.000002
      g-2     :     0.000007
      g+3     :     0.000002
      g-3     :     0.000002
      g+4     :     0.000018
      g-4     :     0.000000
  1 Cls       :     5.939311  s :     5.939311
      pz      :     3.606681  p :    11.361767
      px      :     3.877543
      py      :     3.877543
      dz2     :     0.005039  d :     0.023574
      dxz     :     0.008548
      dyz     :     0.008548
      dx2y2   :     0.000253
      dxy     :     0.001187
      f0      :     0.000746  f :     0.001673
      f+1     :     0.000415
      f-1     :     0.000415
      f+2     :     0.000025
      f-2     :     0.000072
      f+3     :     0.000000
      f-3     :     0.000000

SPIN
  0 Fes       :     0.912713  s :     0.912713
      pz      :     0.185108  p :     0.206251
      px      :     0.010572
      py      :     0.010572
      dz2     :     0.867212  d :     3.693752
      dxz     :     0.913154
      dyz     :     0.913154
      dx2y2   :     0.999721
      dxy     :     0.000512
      f0      :     0.000013  f :    -0.000022
      f+1     :     0.000014
      f-1     :     0.000014
      f+2     :     0.000000
      f-2     :    -0.000002
      f+3     :    -0.000031
      f-3     :    -0.000031
      g0      :     0.000004  g :     0.000021
      g+1     :     0.000005
      g-1     :     0.000005
      g+2     :     0.000002
      g-2     :     0.000006
      g+3     :     0.000001
      g-3     :     0.000001
      g+4     :    -0.000002
      g-4     :    -0.000000
  1 Cls       :    -0.027497  s :    -0.027497
      pz      :     0.064389  p :     0.216822
      px      :     0.076217
      py      :     0.076217
      dz2     :    -0.002045  d :    -0.002301
      dxz     :    -0.000002
      dyz     :    -0.000002
      dx2y2   :     0.000253
      dxy     :    -0.000505
      f0      :     0.000106  f :     0.000261
      f+1     :     0.000070
      f-1     :     0.000070
      f+2     :     0.000025
      f-2     :    -0.000011
      f+3     :     0.000000
      f-3     :     0.000000


                     *******************************
                     * LOEWDIN POPULATION ANALYSIS *
                     *******************************

-------------------------------------------
LOEWDIN ATOMIC CHARGES AND SPIN POPULATIONS
-------------------------------------------
   0 Fe:    0.158373    4.582609
   1 Cl:   -0.158373    0.417391

----------------------------------------------------
LOEWDIN REDUCED ORBITAL CHARGES AND SPIN POPULATIONS
----------------------------------------------------
CHARGE
  0 Fes       :     6.732042  s :     6.732042
      pz      :     4.456394  p :    12.587034
      px      :     4.065320
      py      :     4.065320
      dz2     :     1.237177  d :     6.517639
      dxz     :     1.142456
      dyz     :     1.142456
      dx2y2   :     0.998941
      dxy     :     1.996609
      f0      :     0.002943  f :     0.004841
      f+1     :     0.000897
      f-1     :     0.000897
      f+2     :     0.000000
      f-2     :     0.000002
      f+3     :     0.000052
      f-3     :     0.000052
      g0      :     0.000022  g :     0.000071
      g+1     :     0.000010
      g-1     :     0.000010
      g+2     :     0.000002
      g-2     :     0.000007
      g+3     :     0.000002
      g-3     :     0.000002
      g+4     :     0.000018
      g-4     :     0.000000
  1 Cls       :     5.758729  s :     5.758729
      pz      :     3.731256  p :    11.291988
      px      :     3.780366
      py      :     3.780366
      dz2     :     0.079870  d :     0.104539
      dxz     :     0.010203
      dyz     :     0.010203
      dx2y2   :     0.001009
      dxy     :     0.003254
      f0      :     0.001550  f :     0.003118
      f+1     :     0.000696
      f-1     :     0.000696
      f+2     :     0.000048
      f-2     :     0.000129
      f+3     :     0.000000
      f-3     :     0.000000

SPIN
  0 Fes       :     0.619745  s :     0.619745
      pz      :     0.264800  p :     0.291304
      px      :     0.013252
      py      :     0.013252
      dz2     :     0.860896  d :     3.671280
      dxz     :     0.905416
      dyz     :     0.905416
      dx2y2   :     0.998941
      dxy     :     0.000611
      f0      :     0.000244  f :     0.000260
      f+1     :     0.000040
      f-1     :     0.000040
      f+2     :     0.000000
      f-2     :    -0.000001
      f+3     :    -0.000031
      f-3     :    -0.000031
      g0      :     0.000003  g :     0.000020
      g+1     :     0.000004
      g-1     :     0.000004
      g+2     :     0.000002
      g-2     :     0.000006
      g+3     :     0.000001
      g-3     :     0.000001
      g+4     :    -0.000002
      g-4     :    -0.000000
  1 Cls       :     0.047504  s :     0.047504
      pz      :     0.167890  p :     0.321204
      px      :     0.076657
      py      :     0.076657
      dz2     :     0.038150  d :     0.047013
      dxz     :     0.004229
      dyz     :     0.004229
      dx2y2   :     0.001009
      dxy     :    -0.000604
      f0      :     0.000769  f :     0.001669
      f+1     :     0.000432
      f-1     :     0.000432
      f+2     :     0.000048
      f-2     :    -0.000011
      f+3     :     0.000000
      f-3     :     0.000000


                      *****************************
                      * MAYER POPULATION ANALYSIS *
                      *****************************

  NA   - Mulliken gross atomic population
  ZA   - Total nuclear charge
  QA   - Mulliken gross atomic charge
  VA   - Mayer's total valence
  BVA  - Mayer's bonded valence
  FA   - Mayer's free valence

  ATOM       NA         ZA         QA         VA         BVA        FA
  0 Fe    25.6737    26.0000     0.3263     5.4617     0.8934     4.5683
  1 Cl    17.3263    17.0000    -0.3263     0.9275     0.8934     0.0341

  Mayer bond orders larger than 0.100000
B(  0-Fe,  1-Cl) :   0.8934 

-------
TIMINGS
-------

Total SCF time: 0 days 0 hours 0 min 1 sec 

Total time                  ....       1.780 sec
Sum of individual times     ....       1.672 sec  ( 94.0%)

Fock matrix formation       ....       1.370 sec  ( 77.0%)
  Split-RI-J                ....       0.895 sec  ( 65.3% of F)
  XC integration            ....       0.425 sec  ( 31.0% of F)
    Basis function eval.    ....       0.018 sec  (  4.2% of XC)
    Density eval.           ....       0.039 sec  (  9.1% of XC)
    XC-Functional eval.     ....       0.016 sec  (  3.8% of XC)
    XC-Potential eval.      ....       0.098 sec  ( 23.0% of XC)
Diagonalization             ....       0.042 sec  (  2.3%)
Density matrix formation    ....       0.007 sec  (  0.4%)
Population analysis         ....       0.006 sec  (  0.3%)
Initial guess               ....       0.084 sec  (  4.7%)
Orbital Transformation      ....       0.000 sec  (  0.0%)
Orbital Orthonormalization  ....       0.000 sec  (  0.0%)
DIIS solution               ....       0.016 sec  (  0.9%)
Grid generation             ....       0.148 sec  (  8.3%)


-------------------------------------------------------------------------------
                          DFT DISPERSION CORRECTION                            
                                                                               
                              DFTD3 V3.1  Rev 1                                
                          USING Becke-Johnson damping                          
-------------------------------------------------------------------------------
The TPSS functional is recognized
Active option DFTDOPT                   ...         4   

molecular C6(AA) [au] = 597.150346 


            DFT-D V3
 parameters
 s6 scaling factor         :     1.0000 
 a1 scaling factor         :     0.4535 
 s8 scaling factor         :     1.9435 
 a2 scaling factor         :     4.4752 
 ad hoc parameters k1-k3   :    16.0000     1.3333    -4.0000 

 Edisp/kcal,au: -0.900788226120  -0.001435497259 
 E6   /kcal   :  -0.311163870 
 E8   /kcal   :  -0.589624356 
 % E8         :  65.456490121 

-------------------------   ----------------
Dispersion correction           -0.001435497
-------------------------   ----------------


-------------------------   --------------------
FINAL SINGLE POINT ENERGY     -1724.006395935299
-------------------------   --------------------


                            ***************************************
                            *     ORCA property calculations      *
                            ***************************************

                                    ---------------------
                                    Active property flags
                                    ---------------------
   (+) Dipole Moment


------------------------------------------------------------------------------
                       ORCA ELECTRIC PROPERTIES CALCULATION
------------------------------------------------------------------------------

Dipole Moment Calculation                       ... on
Quadrupole Moment Calculation                   ... off
Polarizability Calculation                      ... off
GBWName                                         ... TMD19_FeCl.gbw
Electron density file                           ... TMD19_FeCl.scfp
The origin for moment calculation is the CENTER OF MASS  = ( 0.000000,  0.000000  0.029302)

-------------
DIPOLE MOMENT
-------------
                                X             Y             Z
Electronic contribution:      0.00000       0.00000       1.96076
Nuclear contribution   :      0.00000       0.00000      -1.26002
                        -----------------------------------------
Total Dipole Moment    :      0.00000       0.00000       0.70075
                        -----------------------------------------
Magnitude (a.u.)       :      0.70075
Magnitude (Debye)      :      1.78115



--------------------
Rotational spectrum 
--------------------
 
Rotational constants in cm-1:     0.000000     0.160606     0.160606 
Rotational constants in MHz :     0.000000  4814.831818  4814.831818 

 Dipole components along the rotational axes: 
x,y,z [a.u.] :     0.700745     0.000000     0.000000 
x,y,z [Debye]:     1.781153     0.000000     0.000000 

 

Timings for individual modules:

Sum of individual times         ...        2.676 sec (=   0.045 min)
GTO integral calculation        ...        0.568 sec (=   0.009 min)  21.2 %
SCF iterations                  ...        2.108 sec (=   0.035 min)  78.8 %
                             ****ORCA TERMINATED NORMALLY****
TOTAL RUN TIME: 0 days 0 hours 0 minutes 3 seconds 152 msec
