
                                 *****************
                                 * O   R   C   A *
                                 *****************

           --- An Ab Initio, DFT and Semiempirical electronic structure package ---

                  #######################################################
                  #                        -***-                        #
                  #          Department of theory and spectroscopy      #
                  #               Directorship: Frank Neese             #
                  #        Max Planck Institute fuer Kohlenforschung    #
                  #                Kaiser Wilhelm Platz 1               #
                  #                 D-45470 Muelheim/Ruhr               #
                  #                      Germany                        #
                  #                                                     #
                  #                  All rights reserved                #
                  #                        -***-                        #
                  #######################################################


                         Program Version 4.2.0 -  RELEASE  -


 With contributions from (in alphabetic order):
   Daniel Aravena         : Magnetic Suceptibility
   Michael Atanasov       : Ab Initio Ligand Field Theory (pilot matlab implementation)
   Alexander A. Auer      : GIAO ZORA, VPT2
   Ute Becker             : Parallelization
   Giovanni Bistoni       : ED, misc. LED, open-shell LED, HFLED
   Martin Brehm           : Molecular dynamics
   Dmytro Bykov           : SCF Hessian
   Vijay G. Chilkuri      : MRCI spin determinant printing, contributions to CSF-ICE
   Dipayan Datta          : RHF DLPNO-CCSD density
   Achintya Kumar Dutta   : EOM-CC, STEOM-CC
   Dmitry Ganyushin       : Spin-Orbit,Spin-Spin,Magnetic field MRCI
   Miquel Garcia          : C-PCM Hessian, Gaussian charge scheme
   Yang Guo               : DLPNO-NEVPT2, CIM, IAO-localization
   Andreas Hansen         : Spin unrestricted coupled pair/coupled cluster methods
   Benjamin Helmich-Paris : CASSCF linear response (MC-RPA)
   Lee Huntington         : MR-EOM, pCC
   Robert Izsak           : Overlap fitted RIJCOSX, COSX-SCS-MP3, EOM
   Christian Kollmar      : KDIIS, OOCD, Brueckner-CCSD(T), CCSD density
   Simone Kossmann        : Meta GGA functionals, TD-DFT gradient, OOMP2, MP2 Hessian
   Martin Krupicka        : AUTO-CI
   Lucas Lang             : DCDCAS
   Dagmar Lenk            : GEPOL surface, SMD
   Dimitrios Liakos       : Extrapolation schemes; Compound Job, initial MDCI parallelization
   Dimitrios Manganas     : Further ROCIS development; embedding schemes
   Dimitrios Pantazis     : SARC Basis sets
   Taras Petrenko         : DFT Hessian,TD-DFT gradient, ASA, ECA, R-Raman, ABS, FL, XAS/XES, NRVS
   Peter Pinski           : DLPNO-MP2, DLPNO-MP2 Gradient
   Christoph Reimann      : Effective Core Potentials
   Marius Retegan         : Local ZFS, SOC
   Christoph Riplinger    : Optimizer, TS searches, QM/MM, DLPNO-CCSD(T), (RO)-DLPNO pert. Triples
   Tobias Risthaus        : Range-separated hybrids, TD-DFT gradient, RPA, STAB
   Michael Roemelt        : Original ROCIS implementation
   Masaaki Saitow         : Open-shell DLPNO-CCSD energy and density
   Barbara Sandhoefer     : DKH picture change effects
   Avijit Sen             : IP-ROCIS
   Kantharuban Sivalingam : CASSCF convergence, NEVPT2, FIC-MRCI
   Bernardo de Souza      : ESD, SOC TD-DFT
   Georgi Stoychev        : AutoAux, RI-MP2 NMR
   Willem Van den Heuvel  : Paramagnetic NMR
   Boris Wezisla          : Elementary symmetry handling
   Frank Wennmohs         : Technical directorship


 We gratefully acknowledge several colleagues who have allowed us to
 interface, adapt or use parts of their codes:
   Stefan Grimme, W. Hujo, H. Kruse,             : VdW corrections, initial TS optimization,
                  C. Bannwarth                     DFT functionals, gCP, sTDA/sTD-DF
   Ed Valeev, F. Pavosevic, A. Kumar             : LibInt (2-el integral package), F12 methods
   Garnet Chan, S. Sharma, J. Yang, R. Olivares  : DMRG
   Ulf Ekstrom                                   : XCFun DFT Library
   Mihaly Kallay                                 : mrcc  (arbitrary order and MRCC methods)
   Andreas Klamt, Michael Diedenhofen            : otool_cosmo (COSMO solvation model)
   Jiri Pittner, Ondrej Demel                    : Mk-CCSD
   Frank Weinhold                                : gennbo (NPA and NBO analysis)
   Christopher J. Cramer and Donald G. Truhlar   : smd solvation model
   Lars Goerigk                                  : TD-DFT with DH, B97 family of functionals
   V. Asgeirsson, H. Jonsson                     : NEB implementation
   FAccTs GmbH                                   : IRC, NEB, NEB-TS, Multilevel, MM, QM/MM, CI optimization
   S Lehtola, MJT Oliveira, MAL Marques          : LibXC Library


 Your calculation uses the libint2 library for the computation of 2-el integrals
 For citations please refer to: http://libint.valeyev.net

 Your ORCA version has been built with support for libXC version: 4.2.3
 For citations please refer to: https://tddft.org/programs/libxc/

 This ORCA versions uses:
   CBLAS   interface :  Fast vector & matrix operations
   LAPACKE interface :  Fast linear algebra routines
   SCALAPACK package :  Parallel linear algebra routines


Your calculation utilizes the atom-pairwise dispersion correction
with the Becke-Johnson damping scheme (D3BJ)
Cite in your paper:
S.Grimme, S.Ehrlich, L.Goerigk, J Comput Chem, (2011), 32, 1456–1465 
S.Grimme, J.Antony, S.Ehrlich and H.Krieg, J.Chem.Phys., 132, (2010), 154104 
   

----- Orbital basis set information -----
Your calculation utilizes the basis: def2-TZVPPD
   F. Weigend and R. Ahlrichs, Phys. Chem. Chem. Phys. 7, 3297 (2005).
   D. Rappoport and F. Furche, J. Chem. Phys. 133 134105 (2010).

----- AuxJ basis set information -----
Your calculation utilizes the auxiliary basis: def2/J
   F. Weigend, Phys. Chem. Chem. Phys. 8, 1057 (2006).

================================================================================
                                        WARNINGS
                       Please study these warnings very carefully!
================================================================================


WARNING: your system is open-shell and RHF/RKS was chosen
  ===> : WILL SWITCH to UHF/UKS


INFO   : the flag for use of LIBINT has been found!

================================================================================
                                       INPUT FILE
================================================================================
NAME = TMD22_CoF.in
|  1> #
|  2> # TMD22_CoF TPSS-D3BJ/Def2-TZVPPD
|  3> #
|  4> ! tpss d3bj def2-tzvppd def2/j grid4 nofinalgrid
|  5> 
|  6> *xyz 0 3
|  7> Co       0.000000    0.000000    0.440000 
|  8> F        0.000000    0.000000   -1.320000 
|  9> *
| 10> 
| 11> %maxcore 5000
| 12> 
| 13> %pal
| 14> nprocs = 24
| 15> end
| 16> 
| 17> 
| 18>                          ****END OF INPUT****
================================================================================

                       ****************************
                       * Single Point Calculation *
                       ****************************

---------------------------------
CARTESIAN COORDINATES (ANGSTROEM)
---------------------------------
  Co     0.000000    0.000000    0.440000
  F      0.000000    0.000000   -1.320000

----------------------------
CARTESIAN COORDINATES (A.U.)
----------------------------
  NO LB      ZA    FRAG     MASS         X           Y           Z
   0 Co   27.0000    0    58.930    0.000000    0.000000    0.831479
   1 F     9.0000    0    18.998    0.000000    0.000000   -2.494438

--------------------------------
INTERNAL COORDINATES (ANGSTROEM)
--------------------------------
 Co     0   0   0     0.000000000000     0.00000000     0.00000000
 F      1   0   0     1.760000000000     0.00000000     0.00000000

---------------------------
INTERNAL COORDINATES (A.U.)
---------------------------
 Co     0   0   0     0.000000000000     0.00000000     0.00000000
 F      1   0   0     3.325917995701     0.00000000     0.00000000

---------------------
BASIS SET INFORMATION
---------------------
There are 2 groups of distinct atoms

 Group   1 Type Co  : 17s13p7d2f1g contracted to 6s6p4d2f1g pattern {842111/631111/4111/11/1}
 Group   2 Type F   : 12s7p3d1f contracted to 6s4p3d1f pattern {621111/4111/111/1}

Atom   0Co   basis set group =>   1
Atom   1F    basis set group =>   2
---------------------------------
AUXILIARY/J BASIS SET INFORMATION
---------------------------------
There are 2 groups of distinct atoms

 Group   1 Type Co  : 19s5p5d3f3g contracted to 8s5p5d2f3g pattern {121111111/11111/11111/21/111}
 Group   2 Type F   : 12s5p4d2f1g contracted to 6s4p3d1f1g pattern {711111/2111/211/2/1}

Atom   0Co   basis set group =>   1
Atom   1F    basis set group =>   2


           ************************************************************
           *        Program running with 24 parallel MPI-processes    *
           *              working on a common directory               *
           ************************************************************
------------------------------------------------------------------------------
                           ORCA GTO INTEGRAL CALCULATION
                           -- RI-GTO INTEGRALS CHOSEN --
------------------------------------------------------------------------------

                         BASIS SET STATISTICS AND STARTUP INFO

Gaussian basis set:
 # of primitive gaussian shells          ...   63
 # of primitive gaussian functions       ...  169
 # of contracted shells                  ...   33
 # of contracted basis functions         ...  107
 Highest angular momentum                ...    4
 Maximum contraction depth               ...    8
Auxiliary gaussian basis set:
 # of primitive gaussian shells          ...   59
 # of primitive gaussian functions       ...  177
 # of contracted shells                  ...   38
 # of contracted aux-basis functions     ...  138
 Highest angular momentum                ...    4
 Maximum contraction depth               ...   12
Ratio of auxiliary to basis functions    ...  1.29
Integral package used                  ... LIBINT
 One Electron integrals                  ... done
 Ordering auxiliary basis shells         ... done
 Integral threshhold             Thresh  ...  1.000e-10
 Primitive cut-off               TCut    ...  1.000e-11
 Pre-screening matrix                    ... done
 Shell pair data                         ... 
 Ordering of the shell pairs             ... done (   0.000 sec) 553 of 561 pairs
 Determination of significant pairs      ... done (   0.000 sec)
 Creation of shell pair data             ... done (   0.000 sec)
 Storage of shell pair data              ... done (   0.014 sec)
 Shell pair data done in (   0.014 sec)
 Computing two index integrals           ... done
 Cholesky decomposition of the V-matrix  ... done


Timings:
 Total evaluation time                   ...   0.185 sec (  0.003 min)
 One electron matrix time                ...   0.028 sec (  0.000 min) = 14.9%
 Schwartz matrix evaluation time         ...   0.113 sec (  0.002 min) = 61.3%
 Two index repulsion integral time       ...   0.001 sec (  0.000 min) =  0.3%
 Cholesky decomposition of V             ...   0.001 sec (  0.000 min) =  0.5%
 Three index repulsion integral time     ...   0.000 sec (  0.000 min) =  0.0%



           ************************************************************
           *        Program running with 24 parallel MPI-processes    *
           *              working on a common directory               *
           ************************************************************
-------------------------------------------------------------------------------
                                 ORCA SCF
-------------------------------------------------------------------------------

------------
SCF SETTINGS
------------
Hamiltonian:
 Density Functional     Method          .... DFT(GTOs)
 Exchange Functional    Exchange        .... TPSS
 Correlation Functional Correlation     .... TPSS
 LDA part of GGA corr.  LDAOpt          .... PW91-LDA
 Gradients option       PostSCFGGA      .... off
   Density functional embedding theory  .... OFF
   NL short-range parameter             ....  5.000000
 RI-approximation to the Coulomb term is turned on
   Number of auxiliary basis functions  .... 138


General Settings:
 Integral files         IntName         .... TMD22_CoF
 Hartree-Fock type      HFTyp           .... UHF
 Total Charge           Charge          ....    0
 Multiplicity           Mult            ....    3
 Number of Electrons    NEL             ....   36
 Basis Dimension        Dim             ....  107
 Nuclear Repulsion      ENuc            ....     73.0625350096 Eh

Convergence Acceleration:
 DIIS                   CNVDIIS         .... on
   Start iteration      DIISMaxIt       ....    12
   Startup error        DIISStart       ....  0.200000
   # of expansion vecs  DIISMaxEq       ....     5
   Bias factor          DIISBfac        ....   1.050
   Max. coefficient     DIISMaxC        ....  10.000
 Newton-Raphson         CNVNR           .... off
 SOSCF                  CNVSOSCF        .... off
 Level Shifting         CNVShift        .... on
   Level shift para.    LevelShift      ....    0.2500
   Turn off err/grad.   ShiftErr        ....    0.0010
 Zerner damping         CNVZerner       .... off
 Static damping         CNVDamp         .... on
   Fraction old density DampFac         ....    0.7000
   Max. Damping (<1)    DampMax         ....    0.9800
   Min. Damping (>=0)   DampMin         ....    0.0000
   Turn off err/grad.   DampErr         ....    0.1000
 Fernandez-Rico         CNVRico         .... off

SCF Procedure:
 Maximum # iterations   MaxIter         ....   125
 SCF integral mode      SCFMode         .... Direct
   Integral package                     .... LIBINT
 Reset frequency        DirectResetFreq ....    20
 Integral Threshold     Thresh          ....  1.000e-10 Eh
 Primitive CutOff       TCut            ....  1.000e-11 Eh

Convergence Tolerance:
 Convergence Check Mode ConvCheckMode   .... Total+1el-Energy
 Convergence forced     ConvForced      .... 0
 Energy Change          TolE            ....  1.000e-06 Eh
 1-El. energy change                    ....  1.000e-03 Eh
 DIIS Error             TolErr          ....  1.000e-06


Diagonalization of the overlap matrix:
Smallest eigenvalue                        ... 2.298e-03
Time for diagonalization                   ...    0.004 sec
Threshold for overlap eigenvalues          ... 1.000e-08
Number of eigenvalues below threshold      ... 0
Time for construction of square roots      ...    0.002 sec
Total time needed                          ...    0.006 sec

-------------------
DFT GRID GENERATION
-------------------

General Integration Accuracy     IntAcc      ...  4.670
Radial Grid Type                 RadialGrid  ... Gauss-Chebyshev
Angular Grid (max. acc.)         AngularGrid ... Lebedev-302
Angular grid pruning method      GridPruning ... 3 (G Style)
Weight generation scheme         WeightScheme... Becke
Basis function cutoff            BFCut       ...    1.0000e-10
Integration weight cutoff        WCut        ...    1.0000e-14
Grids for H and He will be reduced by one unit

# of grid points (after initial pruning)     ...  15912 (   0.0 sec)
# of grid points (after weights+screening)   ...  15863 (   0.0 sec)
nearest neighbour list constructed           ...    0.0 sec
Grid point re-assignment to atoms done       ...    0.0 sec
Grid point division into batches done        ...    0.1 sec
Reduced shell lists constructed in    0.1 sec

Total number of grid points                  ...    15863
Total number of batches                      ...      249
Average number of points per batch           ...       63
Average number of grid points per atom       ...     7932
Average number of shells per batch           ...     5.92 (17.93%)
Average number of basis functions per batch  ...    16.08 (15.03%)
Average number of large shells per batch     ...     3.42 (57.75%)
Average number of large basis fcns per batch ...     8.58 (53.37%)
Maximum spatial batch extension              ...  28.57, 31.41, 18.45 au
Average spatial batch extension              ...   0.89,  0.95,  0.67 au

Time for grid setup =    0.155 sec

------------------------------
INITIAL GUESS: MODEL POTENTIAL
------------------------------
Loading Hartree-Fock densities                     ... done
Calculating cut-offs                               ... done
Setting up the integral package                    ... done
Initializing the effective Hamiltonian             ... done
Starting the Coulomb interaction                   ... done (   0.0 sec)
Reading the grid                                   ... done
Mapping shells                                     ... done
Starting the XC term evaluation                    ... done (   0.0 sec)
  promolecular density results
     # of electrons  =     36.000020312
     EX              =    -67.693511037
     EC              =     -1.514921245
     EX+EC           =    -69.208432282
Transforming the Hamiltonian                       ... done (   0.0 sec)
Diagonalizing the Hamiltonian                      ... done (   0.0 sec)
Back transforming the eigenvectors                 ... done (   0.0 sec)
Now organizing SCF variables                       ... done
                      ------------------
                      INITIAL GUESS DONE (   0.2 sec)
                      ------------------
--------------
SCF ITERATIONS
--------------
ITER       Energy         Delta-E        Max-DP      RMS-DP      [F,P]     Damp
               ***  Starting incremental Fock matrix formation  ***
  0  -1482.5606490029   0.000000000000 0.02851208  0.00106458  0.2757300 0.7000
  1  -1482.6204436245  -0.059794621582 0.02168285  0.00053674  0.0666517 0.7000
                               ***Turning on DIIS***
  2  -1482.6358002291  -0.015356604614 0.05526448  0.00099492  0.0394740 0.0000
  3  -1482.6810820260  -0.045281796906 0.01633814  0.00050135  0.0496676 0.0000
  4  -1482.6882398606  -0.007157834574 0.01298482  0.00030209  0.0470522 0.0000
  5  -1482.6923134164  -0.004073555818 0.01354290  0.00027207  0.0143310 0.0000
  6  -1482.6950092739  -0.002695857566 0.01578031  0.00028386  0.0109779 0.0000
  7  -1482.6976767417  -0.002667467738 0.01675074  0.00029781  0.0099960 0.0000
  8  -1482.7002143285  -0.002537586808 0.01646686  0.00026553  0.0093766 0.0000
  9  -1482.7022294941  -0.002015165577 0.01405992  0.00023390  0.0097231 0.0000
 10  -1482.7038897510  -0.001660256945 0.01314374  0.00021092  0.0083399 0.0000
 11  -1482.7052201148  -0.001330363802 0.01164529  0.00019284  0.0107464 0.0000
 12  -1482.7063597688  -0.001139653963 0.01176029  0.00019480  0.0060266 0.0000
 13  -1482.7073302636  -0.000970494818 0.01054591  0.00016849  0.0053320 0.0000
 14  -1482.7080475910  -0.000717327398 0.00839682  0.00012944  0.0048827 0.0000
 15  -1482.7085404405  -0.000492849473 0.00781675  0.00013887  0.0041128 0.0000
 16  -1482.7089219671  -0.000381526640 0.00680062  0.00010978  0.0062274 0.0000
 17  -1482.7092050003  -0.000283033220 0.00542092  0.00008627  0.0073548 0.0000
 18  -1482.7094566721  -0.000251671738 0.00462302  0.00008562  0.0022712 0.0000
 19  -1482.7095723762  -0.000115704165 0.00387443  0.00006528  0.0070470 0.0000
               *** Restarting incremental Fock matrix formation ***
                                   *** Resetting DIIS ***
 20  -1482.7096984586  -0.000126082349 0.00349774  0.00006701  0.0030498 0.0000
 21  -1482.7097254943  -0.000027035688 0.00206100  0.00004829  0.0089391 0.0000
 22  -1482.7098302622  -0.000104767952 0.00185061  0.00003818  0.0039028 0.0000
 23  -1482.7098773726  -0.000047110395 0.00165495  0.00003530  0.0028248 0.0000
 24  -1482.7099150707  -0.000037698125 0.00182100  0.00003597  0.0016926 0.0000
 25  -1482.7099471420  -0.000032071275 0.00776588  0.00017925  0.0007787 0.0000
 26  -1482.7100148114  -0.000067669366 0.00028886  0.00000773  0.0055197 0.0000
 27  -1482.7100305837  -0.000015772279 0.00033693  0.00000782  0.0039679 0.0000
 28  -1482.7100403256  -0.000009741939 0.00034376  0.00000755  0.0029332 0.0000
 29  -1482.7100448538  -0.000004528192 0.00021501  0.00000521  0.0026933 0.0000
 30  -1482.7100453866  -0.000000532785 0.00110620  0.00002325  0.0029430 0.0000
 31  -1482.7100614520  -0.000016065436 0.00320038  0.00007617  0.0003691 0.0000
 32  -1482.7100814788  -0.000020026753 0.00109977  0.00002105  0.0005715 0.0000
 33  -1482.7100842016  -0.000002722812 0.00024107  0.00000515  0.0010012 0.0000
 34  -1482.7100858302  -0.000001628613 0.00159443  0.00003436  0.0006645 0.0000
 35  -1482.7100911698  -0.000005339628 0.00061917  0.00001212  0.0006036 0.0000
 36  -1482.7100897283   0.000001441499 0.00291396  0.00006171  0.0004337 0.0000
 37  -1482.7100968572  -0.000007128848 0.00094923  0.00001783  0.0001381 0.0000
 38  -1482.7100972848  -0.000000427688 0.00105822  0.00002298  0.0003907 0.0000
 39  -1482.7100982220  -0.000000937167 0.00150911  0.00003141  0.0001560 0.0000
               *** Restarting incremental Fock matrix formation ***
                                   *** Resetting DIIS ***
 40  -1482.7101034287  -0.000005206717 0.00024296  0.00000398  0.0002403 0.0000
 41  -1482.7101030866   0.000000342161 0.00026467  0.00000565  0.0004376 0.0000
 42  -1482.7101035743  -0.000000487762 0.00017716  0.00000372  0.0005189 0.0000
 43  -1482.7101034591   0.000000115190 0.00007383  0.00000161  0.0001680 0.0000
 44  -1482.7101036576  -0.000000198480 0.00002142  0.00000049  0.0000539 0.0000
                 **** Energy Check signals convergence ****

               *****************************************************
               *                     SUCCESS                       *
               *           SCF CONVERGED AFTER  45 CYCLES          *
               *****************************************************


----------------
TOTAL SCF ENERGY
----------------

Total Energy       :        -1482.71010355 Eh          -40346.59310 eV

Components:
Nuclear Repulsion  :           73.06253501 Eh            1988.13265 eV
Electronic Energy  :        -1555.77263856 Eh          -42334.72575 eV
One Electron Energy:        -2202.27247319 Eh          -59926.88062 eV
Two Electron Energy:          646.49983464 Eh           17592.15487 eV

Virial components:
Potential Energy   :        -2962.72850344 Eh          -80619.94122 eV
Kinetic Energy     :         1480.01839989 Eh           40273.34812 eV
Virial Ratio       :            2.00181870


DFT components:
N(Alpha)           :       18.999988371816 electrons
N(Beta)            :       16.999988381406 electrons
N(Total)           :       35.999976753222 electrons
E(X)               :      -68.353420355289 Eh       
E(C)               :       -1.527644614137 Eh       
E(XC)              :      -69.881064969426 Eh       
DFET-embed. en.    :        0.000000000000 Eh       

---------------
SCF CONVERGENCE
---------------

  Last Energy change         ...    1.0876e-07  Tolerance :   1.0000e-06
  Last MAX-Density change    ...    5.7629e-06  Tolerance :   1.0000e-05
  Last RMS-Density change    ...    1.2993e-07  Tolerance :   1.0000e-06
  Last DIIS Error            ...    1.3334e-05  Tolerance :   1.0000e-06

             **** THE GBW FILE WAS UPDATED (TMD22_CoF.gbw) ****
             **** DENSITY FILE WAS UPDATED (TMD22_CoF.scfp) ****
             **** ENERGY FILE WAS UPDATED (TMD22_CoF.en.tmp) ****
----------------------
UHF SPIN CONTAMINATION
----------------------

Warning: in a DFT calculation there is little theoretical justification to 
         calculate <S**2> as in Hartree-Fock theory. We will do it anyways
         but you should keep in mind that the values have only limited relevance

Expectation value of <S**2>     :     2.037437
Ideal value S*(S+1) for S=1.0   :     2.000000
Deviation                       :     0.037437

             **** THE GBW FILE WAS UPDATED (TMD22_CoF.gbw) ****
             **** DENSITY FILE WAS UPDATED (TMD22_CoF.scfp) ****
----------------
ORBITAL ENERGIES
----------------
                 SPIN UP ORBITALS
  NO   OCC          E(Eh)            E(eV) 
   0   1.0000    -276.665114     -7528.4405 
   1   1.0000     -32.446024      -882.9012 
   2   1.0000     -28.105188      -764.7810 
   3   1.0000     -28.103374      -764.7317 
   4   1.0000     -28.097260      -764.5653 
   5   1.0000     -24.338886      -662.2948 
   6   1.0000      -3.621386       -98.5429 
   7   1.0000      -2.333326       -63.4930 
   8   1.0000      -2.327550       -63.3359 
   9   1.0000      -2.313921       -62.9650 
  10   1.0000      -1.009896       -27.4807 
  11   1.0000      -0.355461        -9.6726 
  12   1.0000      -0.322609        -8.7786 
  13   1.0000      -0.311224        -8.4688 
  14   1.0000      -0.248970        -6.7748 
  15   1.0000      -0.236851        -6.4450 
  16   1.0000      -0.214524        -5.8375 
  17   1.0000      -0.204557        -5.5663 
  18   1.0000      -0.201686        -5.4882 
  19   0.0000      -0.138231        -3.7615 
  20   0.0000      -0.021038        -0.5725 
  21   0.0000      -0.018975        -0.5163 
  22   0.0000       0.022800         0.6204 
  23   0.0000       0.067571         1.8387 
  24   0.0000       0.110516         3.0073 
  25   0.0000       0.113343         3.0842 
  26   0.0000       0.135051         3.6749 
  27   0.0000       0.139385         3.7929 
  28   0.0000       0.139796         3.8041 
  29   0.0000       0.189363         5.1528 
  30   0.0000       0.190260         5.1772 
  31   0.0000       0.192716         5.2441 
  32   0.0000       0.266627         7.2553 
  33   0.0000       0.267413         7.2767 
  34   0.0000       0.275726         7.5029 
  35   0.0000       0.368022        10.0144 
  36   0.0000       0.532247        14.4832 
  37   0.0000       0.532434        14.4883 
  38   0.0000       0.553913        15.0727 
  39   0.0000       0.558007        15.1841 
  40   0.0000       0.612074        16.6554 
  41   0.0000       0.638405        17.3719 
  42   0.0000       0.673530        18.3277 
  43   0.0000       0.673948        18.3391 
  44   0.0000       0.780602        21.2413 
  45   0.0000       0.781783        21.2734 
  46   0.0000       0.923922        25.1412 
  47   0.0000       0.931029        25.3346 
  48   0.0000       1.027414        27.9573 
  49   0.0000       1.054705        28.7000 
  50   0.0000       1.057735        28.7824 
  51   0.0000       1.094378        29.7795 
  52   0.0000       1.365775        37.1646 
  53   0.0000       2.071770        56.3757 
  54   0.0000       2.230568        60.6968 
  55   0.0000       2.233572        60.7786 
  56   0.0000       2.254885        61.3585 
  57   0.0000       2.254929        61.3597 
  58   0.0000       2.574912        70.0669 
  59   0.0000       2.577460        70.1362 
  60   0.0000       2.622648        71.3659 
  61   0.0000       2.623267        71.3827 
  62   0.0000       2.623581        71.3913 
  63   0.0000       2.634278        71.6824 
  64   0.0000       2.719327        73.9966 
  65   0.0000       2.802542        76.2610 
  66   0.0000       2.807685        76.4010 
  67   0.0000       2.906657        79.0942 
  68   0.0000       3.149264        85.6958 
  69   0.0000       3.332395        90.6791 
  70   0.0000       3.336406        90.7882 
  71   0.0000       3.685028       100.2747 
  72   0.0000       3.708437       100.9117 
  73   0.0000       3.733620       101.5970 
  74   0.0000       3.751008       102.0701 
  75   0.0000       3.778452       102.8169 
  76   0.0000       3.899376       106.1074 
  77   0.0000       4.213928       114.6668 
  78   0.0000       6.920716       188.3223 
  79   0.0000       6.920933       188.3282 
  80   0.0000       6.934252       188.6906 
  81   0.0000       6.934296       188.6918 
  82   0.0000       6.967379       189.5920 
  83   0.0000       6.971363       189.7004 
  84   0.0000       7.070754       192.4050 
  85   0.0000       8.440888       229.6882 
  86   0.0000       8.442080       229.7207 
  87   0.0000       8.488805       230.9921 
  88   0.0000       8.494107       231.1364 
  89   0.0000       8.707307       236.9379 
  90   0.0000       9.878036       268.7950 
  91   0.0000       9.889142       269.0972 
  92   0.0000       9.892754       269.1955 
  93   0.0000       9.893311       269.2107 
  94   0.0000       9.901678       269.4384 
  95   0.0000       9.911043       269.6932 
  96   0.0000       9.920273       269.9443 
  97   0.0000       9.923183       270.0235 
  98   0.0000       9.945185       270.6222 
  99   0.0000      10.329297       281.0745 
 100   0.0000      10.339455       281.3509 
 101   0.0000      10.345165       281.5063 
 102   0.0000      10.356178       281.8059 
 103   0.0000      10.395837       282.8851 
 104   0.0000      10.443016       284.1689 
 105   0.0000      10.738582       292.2117 
 106   0.0000      56.907342      1548.5275 

                 SPIN DOWN ORBITALS
  NO   OCC          E(Eh)            E(eV) 
   0   1.0000    -276.664677     -7528.4286 
   1   1.0000     -32.412114      -881.9785 
   2   1.0000     -28.076852      -764.0100 
   3   1.0000     -28.075636      -763.9769 
   4   1.0000     -28.070546      -763.8384 
   5   1.0000     -24.337011      -662.2437 
   6   1.0000      -3.534687       -96.1837 
   7   1.0000      -2.244744       -61.0826 
   8   1.0000      -2.235023       -60.8181 
   9   1.0000      -2.234988       -60.8171 
  10   1.0000      -1.006036       -27.3756 
  11   1.0000      -0.345302        -9.3961 
  12   1.0000      -0.306074        -8.3287 
  13   1.0000      -0.300203        -8.1689 
  14   1.0000      -0.183071        -4.9816 
  15   1.0000      -0.174571        -4.7503 
  16   1.0000      -0.171894        -4.6775 
  17   0.0000      -0.129751        -3.5307 
  18   0.0000      -0.117433        -3.1955 
  19   0.0000      -0.102599        -2.7919 
  20   0.0000      -0.018836        -0.5126 
  21   0.0000      -0.013465        -0.3664 
  22   0.0000       0.024205         0.6587 
  23   0.0000       0.069229         1.8838 
  24   0.0000       0.111273         3.0279 
  25   0.0000       0.118431         3.2227 
  26   0.0000       0.139391         3.7930 
  27   0.0000       0.140107         3.8125 
  28   0.0000       0.140298         3.8177 
  29   0.0000       0.191564         5.2127 
  30   0.0000       0.195761         5.3269 
  31   0.0000       0.204250         5.5579 
  32   0.0000       0.271931         7.3996 
  33   0.0000       0.274827         7.4784 
  34   0.0000       0.277972         7.5640 
  35   0.0000       0.375492        10.2177 
  36   0.0000       0.532619        14.4933 
  37   0.0000       0.533554        14.5188 
  38   0.0000       0.570674        15.5288 
  39   0.0000       0.573734        15.6121 
  40   0.0000       0.624308        16.9883 
  41   0.0000       0.649456        17.6726 
  42   0.0000       0.677827        18.4446 
  43   0.0000       0.679432        18.4883 
  44   0.0000       0.787562        21.4306 
  45   0.0000       0.788650        21.4603 
  46   0.0000       0.941538        25.6205 
  47   0.0000       0.969899        26.3923 
  48   0.0000       1.031993        28.0820 
  49   0.0000       1.073637        29.2151 
  50   0.0000       1.093611        29.7587 
  51   0.0000       1.112129        30.2626 
  52   0.0000       1.375573        37.4312 
  53   0.0000       2.092706        56.9454 
  54   0.0000       2.240438        60.9654 
  55   0.0000       2.242835        61.0306 
  56   0.0000       2.258448        61.4555 
  57   0.0000       2.258607        61.4598 
  58   0.0000       2.627273        71.4917 
  59   0.0000       2.631292        71.6011 
  60   0.0000       2.674637        72.7806 
  61   0.0000       2.676619        72.8345 
  62   0.0000       2.676750        72.8381 
  63   0.0000       2.700306        73.4791 
  64   0.0000       2.767815        75.3161 
  65   0.0000       2.848645        77.5156 
  66   0.0000       2.860148        77.8286 
  67   0.0000       2.965661        80.6997 
  68   0.0000       3.175838        86.4190 
  69   0.0000       3.339063        90.8605 
  70   0.0000       3.340787        90.9074 
  71   0.0000       3.743264       101.8594 
  72   0.0000       3.762808       102.3912 
  73   0.0000       3.781287       102.8940 
  74   0.0000       3.814187       103.7893 
  75   0.0000       3.852655       104.8361 
  76   0.0000       3.927178       106.8639 
  77   0.0000       4.234310       115.2214 
  78   0.0000       6.924621       188.4285 
  79   0.0000       6.924738       188.4317 
  80   0.0000       6.939006       188.8199 
  81   0.0000       6.939015       188.8202 
  82   0.0000       6.972940       189.7433 
  83   0.0000       6.974212       189.7779 
  84   0.0000       7.075569       192.5360 
  85   0.0000       8.447951       229.8804 
  86   0.0000       8.449187       229.9141 
  87   0.0000       8.496724       231.2076 
  88   0.0000       8.497141       231.2190 
  89   0.0000       8.716510       237.1883 
  90   0.0000       9.975307       271.4419 
  91   0.0000       9.979553       271.5574 
  92   0.0000       9.982761       271.6447 
  93   0.0000       9.989043       271.8157 
  94   0.0000       9.992075       271.8982 
  95   0.0000       9.993976       271.9499 
  96   0.0000       9.995021       271.9784 
  97   0.0000      10.001636       272.1584 
  98   0.0000      10.023866       272.7633 
  99   0.0000      10.441420       284.1255 
 100   0.0000      10.450997       284.3861 
 101   0.0000      10.454284       284.4755 
 102   0.0000      10.476227       285.0726 
 103   0.0000      10.523499       286.3590 
 104   0.0000      10.541356       286.8449 
 105   0.0000      10.839132       294.9478 
 106   0.0000      56.909509      1548.5865 

                    ********************************
                    * MULLIKEN POPULATION ANALYSIS *
                    ********************************

--------------------------------------------
MULLIKEN ATOMIC CHARGES AND SPIN POPULATIONS
--------------------------------------------
   0 Co:    0.591010    1.945598
   1 F :   -0.591010    0.054402
Sum of atomic charges         :   -0.0000000
Sum of atomic spin populations:    2.0000000

-----------------------------------------------------
MULLIKEN REDUCED ORBITAL CHARGES AND SPIN POPULATIONS
-----------------------------------------------------
CHARGE
  0 Cos       :     6.555786  s :     6.555786
      pz      :     4.035246  p :    12.105309
      px      :     4.037751
      py      :     4.032312
      dz2     :     1.457337  d :     7.744348
      dxz     :     1.672120
      dyz     :     1.373224
      dx2y2   :     1.921585
      dxy     :     1.320081
      f0      :     0.001556  f :     0.003490
      f+1     :     0.000914
      f-1     :     0.000855
      f+2     :     0.000052
      f-2     :     0.000069
      f+3     :     0.000013
      f-3     :     0.000031
      g0      :     0.000015  g :     0.000056
      g+1     :     0.000006
      g-1     :     0.000006
      g+2     :     0.000003
      g-2     :     0.000012
      g+3     :     0.000005
      g-3     :     0.000001
      g+4     :     0.000005
      g-4     :     0.000003
  1 F s       :     3.985964  s :     3.985964
      pz      :     1.717339  p :     5.596081
      px      :     1.948970
      py      :     1.929772
      dz2     :     0.005668  d :     0.008719
      dxz     :     0.001686
      dyz     :     0.002217
      dx2y2   :    -0.000514
      dxy     :    -0.000338
      f0      :     0.000120  f :     0.000246
      f+1     :     0.000060
      f-1     :     0.000056
      f+2     :     0.000006
      f-2     :     0.000004
      f+3     :     0.000000
      f-3     :     0.000000

SPIN
  0 Cos       :    -0.068140  s :    -0.068140
      pz      :    -0.001839  p :     0.005372
      px      :     0.002436
      py      :     0.004775
      dz2     :     0.312055  d :     2.008193
      dxz     :     0.318482
      dyz     :     0.619096
      dx2y2   :     0.078731
      dxy     :     0.679828
      f0      :     0.000039  f :     0.000170
      f+1     :     0.000038
      f-1     :     0.000108
      f+2     :     0.000001
      f-2     :     0.000005
      f+3     :    -0.000003
      f-3     :    -0.000019
      g0      :     0.000001  g :     0.000004
      g+1     :    -0.000001
      g-1     :     0.000001
      g+2     :     0.000001
      g-2     :    -0.000002
      g+3     :     0.000005
      g-3     :     0.000001
      g+4     :    -0.000000
      g-4     :    -0.000000
  1 F s       :    -0.001719  s :    -0.001719
      pz      :     0.000733  p :     0.057422
      px      :     0.018072
      py      :     0.038616
      dz2     :     0.000223  d :    -0.001316
      dxz     :    -0.000555
      dyz     :    -0.001062
      dx2y2   :     0.000094
      dxy     :    -0.000016
      f0      :     0.000005  f :     0.000015
      f+1     :     0.000002
      f-1     :     0.000006
      f+2     :    -0.000000
      f-2     :     0.000002
      f+3     :     0.000000
      f-3     :     0.000000


                     *******************************
                     * LOEWDIN POPULATION ANALYSIS *
                     *******************************

-------------------------------------------
LOEWDIN ATOMIC CHARGES AND SPIN POPULATIONS
-------------------------------------------
   0 Co:    0.517820    1.942999
   1 F :   -0.517820    0.057001

----------------------------------------------------
LOEWDIN REDUCED ORBITAL CHARGES AND SPIN POPULATIONS
----------------------------------------------------
CHARGE
  0 Cos       :     6.382254  s :     6.382254
      pz      :     4.103994  p :    12.225565
      px      :     4.065025
      py      :     4.056546
      dz2     :     1.538880  d :     7.866568
      dxz     :     1.693952
      dyz     :     1.400291
      dx2y2   :     1.916517
      dxy     :     1.316928
      f0      :     0.004192  f :     0.007712
      f+1     :     0.001719
      f-1     :     0.001616
      f+2     :     0.000064
      f-2     :     0.000076
      f+3     :     0.000013
      f-3     :     0.000031
      g0      :     0.000033  g :     0.000082
      g+1     :     0.000010
      g-1     :     0.000010
      g+2     :     0.000003
      g-2     :     0.000012
      g+3     :     0.000005
      g-3     :     0.000001
      g+4     :     0.000005
      g-4     :     0.000003
  1 F s       :     3.850323  s :     3.850323
      pz      :     1.821254  p :     5.573104
      px      :     1.885327
      py      :     1.866524
      dz2     :     0.057880  d :     0.093872
      dxz     :     0.015328
      dyz     :     0.013335
      dx2y2   :     0.004530
      dxy     :     0.002800
      f0      :     0.000223  f :     0.000521
      f+1     :     0.000147
      f-1     :     0.000121
      f+2     :     0.000018
      f-2     :     0.000012
      f+3     :     0.000000
      f-3     :     0.000000

SPIN
  0 Cos       :    -0.055625  s :    -0.055625
      pz      :    -0.002791  p :     0.008370
      px      :     0.003338
      py      :     0.007823
      dz2     :     0.306204  d :     1.989994
      dxz     :     0.314681
      dyz     :     0.611270
      dx2y2   :     0.079042
      dxy     :     0.678797
      f0      :     0.000039  f :     0.000256
      f+1     :     0.000063
      f-1     :     0.000167
      f+2     :     0.000000
      f-2     :     0.000008
      f+3     :    -0.000003
      f-3     :    -0.000019
      g0      :     0.000001  g :     0.000004
      g+1     :    -0.000001
      g-1     :     0.000001
      g+2     :     0.000001
      g-2     :    -0.000002
      g+3     :     0.000005
      g-3     :     0.000001
      g+4     :    -0.000000
      g-4     :    -0.000000
  1 F s       :    -0.006226  s :    -0.006226
      pz      :    -0.000623  p :     0.057152
      px      :     0.018800
      py      :     0.038976
      dz2     :     0.000347  d :     0.005976
      dxz     :     0.001576
      dyz     :     0.003261
      dx2y2   :    -0.000217
      dxy     :     0.001009
      f0      :     0.000033  f :     0.000099
      f+1     :     0.000020
      f-1     :     0.000042
      f+2     :    -0.000000
      f-2     :     0.000005
      f+3     :     0.000000
      f-3     :     0.000000


                      *****************************
                      * MAYER POPULATION ANALYSIS *
                      *****************************

  NA   - Mulliken gross atomic population
  ZA   - Total nuclear charge
  QA   - Mulliken gross atomic charge
  VA   - Mayer's total valence
  BVA  - Mayer's bonded valence
  FA   - Mayer's free valence

  ATOM       NA         ZA         QA         VA         BVA        FA
  0 Co    26.4090    27.0000     0.5910     2.7495     0.8121     1.9373
  1 F      9.5910     9.0000    -0.5910     0.8156     0.8121     0.0035

  Mayer bond orders larger than 0.100000
B(  0-Co,  1-F ) :   0.8121 

-------
TIMINGS
-------

Total SCF time: 0 days 0 hours 0 min 5 sec 

Total time                  ....       5.360 sec
Sum of individual times     ....       5.202 sec  ( 97.0%)

Fock matrix formation       ....       4.745 sec  ( 88.5%)
  Split-RI-J                ....       3.188 sec  ( 67.2% of F)
  XC integration            ....       1.366 sec  ( 28.8% of F)
    Basis function eval.    ....       0.061 sec  (  4.5% of XC)
    Density eval.           ....       0.137 sec  ( 10.1% of XC)
    XC-Functional eval.     ....       0.060 sec  (  4.4% of XC)
    XC-Potential eval.      ....       0.322 sec  ( 23.6% of XC)
Diagonalization             ....       0.137 sec  (  2.6%)
Density matrix formation    ....       0.020 sec  (  0.4%)
Population analysis         ....       0.005 sec  (  0.1%)
Initial guess               ....       0.084 sec  (  1.6%)
Orbital Transformation      ....       0.000 sec  (  0.0%)
Orbital Orthonormalization  ....       0.000 sec  (  0.0%)
DIIS solution               ....       0.055 sec  (  1.0%)
Grid generation             ....       0.155 sec  (  2.9%)


-------------------------------------------------------------------------------
                          DFT DISPERSION CORRECTION                            
                                                                               
                              DFTD3 V3.1  Rev 1                                
                          USING Becke-Johnson damping                          
-------------------------------------------------------------------------------
The TPSS functional is recognized
Active option DFTDOPT                   ...         4   

molecular C6(AA) [au] = 300.923928 


            DFT-D V3
 parameters
 s6 scaling factor         :     1.0000 
 a1 scaling factor         :     0.4535 
 s8 scaling factor         :     1.9435 
 a2 scaling factor         :     4.4752 
 ad hoc parameters k1-k3   :    16.0000     1.3333    -4.0000 

 Edisp/kcal,au: -0.332961383117  -0.000530607682 
 E6   /kcal   :  -0.137316164 
 E8   /kcal   :  -0.195645219 
 % E8         :  58.759132098 

-------------------------   ----------------
Dispersion correction           -0.000530608
-------------------------   ----------------


-------------------------   --------------------
FINAL SINGLE POINT ENERGY     -1482.710634156548
-------------------------   --------------------


                            ***************************************
                            *     ORCA property calculations      *
                            ***************************************

                                    ---------------------
                                    Active property flags
                                    ---------------------
   (+) Dipole Moment


------------------------------------------------------------------------------
                       ORCA ELECTRIC PROPERTIES CALCULATION
------------------------------------------------------------------------------

Dipole Moment Calculation                       ... on
Quadrupole Moment Calculation                   ... off
Polarizability Calculation                      ... off
GBWName                                         ... TMD22_CoF.gbw
Electron density file                           ... TMD22_CoF.scfp
The origin for moment calculation is the CENTER OF MASS  = ( 0.000000,  0.000000  0.020657)

-------------
DIPOLE MOMENT
-------------
                                X             Y             Z
Electronic contribution:      0.00000       0.00000       2.47573
Nuclear contribution   :      0.00000       0.00000      -0.74365
                        -----------------------------------------
Total Dipole Moment    :      0.00000       0.00000       1.73208
                        -----------------------------------------
Magnitude (a.u.)       :      1.73208
Magnitude (Debye)      :      4.40260



--------------------
Rotational spectrum 
--------------------
 
Rotational constants in cm-1:     0.000000     0.378809     0.378809 
Rotational constants in MHz :     0.000000 11356.420741 11356.420741 

 Dipole components along the rotational axes: 
x,y,z [a.u.] :     1.732080     0.000000     0.000000 
x,y,z [Debye]:     4.402598     0.000000     0.000000 

 

Timings for individual modules:

Sum of individual times         ...        6.229 sec (=   0.104 min)
GTO integral calculation        ...        0.536 sec (=   0.009 min)   8.6 %
SCF iterations                  ...        5.693 sec (=   0.095 min)  91.4 %
                             ****ORCA TERMINATED NORMALLY****
TOTAL RUN TIME: 0 days 0 hours 0 minutes 6 seconds 725 msec
