
                                 *****************
                                 * O   R   C   A *
                                 *****************

           --- An Ab Initio, DFT and Semiempirical electronic structure package ---

                  #######################################################
                  #                        -***-                        #
                  #          Department of theory and spectroscopy      #
                  #               Directorship: Frank Neese             #
                  #        Max Planck Institute fuer Kohlenforschung    #
                  #                Kaiser Wilhelm Platz 1               #
                  #                 D-45470 Muelheim/Ruhr               #
                  #                      Germany                        #
                  #                                                     #
                  #                  All rights reserved                #
                  #                        -***-                        #
                  #######################################################


                         Program Version 4.2.0 -  RELEASE  -


 With contributions from (in alphabetic order):
   Daniel Aravena         : Magnetic Suceptibility
   Michael Atanasov       : Ab Initio Ligand Field Theory (pilot matlab implementation)
   Alexander A. Auer      : GIAO ZORA, VPT2
   Ute Becker             : Parallelization
   Giovanni Bistoni       : ED, misc. LED, open-shell LED, HFLED
   Martin Brehm           : Molecular dynamics
   Dmytro Bykov           : SCF Hessian
   Vijay G. Chilkuri      : MRCI spin determinant printing, contributions to CSF-ICE
   Dipayan Datta          : RHF DLPNO-CCSD density
   Achintya Kumar Dutta   : EOM-CC, STEOM-CC
   Dmitry Ganyushin       : Spin-Orbit,Spin-Spin,Magnetic field MRCI
   Miquel Garcia          : C-PCM Hessian, Gaussian charge scheme
   Yang Guo               : DLPNO-NEVPT2, CIM, IAO-localization
   Andreas Hansen         : Spin unrestricted coupled pair/coupled cluster methods
   Benjamin Helmich-Paris : CASSCF linear response (MC-RPA)
   Lee Huntington         : MR-EOM, pCC
   Robert Izsak           : Overlap fitted RIJCOSX, COSX-SCS-MP3, EOM
   Christian Kollmar      : KDIIS, OOCD, Brueckner-CCSD(T), CCSD density
   Simone Kossmann        : Meta GGA functionals, TD-DFT gradient, OOMP2, MP2 Hessian
   Martin Krupicka        : AUTO-CI
   Lucas Lang             : DCDCAS
   Dagmar Lenk            : GEPOL surface, SMD
   Dimitrios Liakos       : Extrapolation schemes; Compound Job, initial MDCI parallelization
   Dimitrios Manganas     : Further ROCIS development; embedding schemes
   Dimitrios Pantazis     : SARC Basis sets
   Taras Petrenko         : DFT Hessian,TD-DFT gradient, ASA, ECA, R-Raman, ABS, FL, XAS/XES, NRVS
   Peter Pinski           : DLPNO-MP2, DLPNO-MP2 Gradient
   Christoph Reimann      : Effective Core Potentials
   Marius Retegan         : Local ZFS, SOC
   Christoph Riplinger    : Optimizer, TS searches, QM/MM, DLPNO-CCSD(T), (RO)-DLPNO pert. Triples
   Tobias Risthaus        : Range-separated hybrids, TD-DFT gradient, RPA, STAB
   Michael Roemelt        : Original ROCIS implementation
   Masaaki Saitow         : Open-shell DLPNO-CCSD energy and density
   Barbara Sandhoefer     : DKH picture change effects
   Avijit Sen             : IP-ROCIS
   Kantharuban Sivalingam : CASSCF convergence, NEVPT2, FIC-MRCI
   Bernardo de Souza      : ESD, SOC TD-DFT
   Georgi Stoychev        : AutoAux, RI-MP2 NMR
   Willem Van den Heuvel  : Paramagnetic NMR
   Boris Wezisla          : Elementary symmetry handling
   Frank Wennmohs         : Technical directorship


 We gratefully acknowledge several colleagues who have allowed us to
 interface, adapt or use parts of their codes:
   Stefan Grimme, W. Hujo, H. Kruse,             : VdW corrections, initial TS optimization,
                  C. Bannwarth                     DFT functionals, gCP, sTDA/sTD-DF
   Ed Valeev, F. Pavosevic, A. Kumar             : LibInt (2-el integral package), F12 methods
   Garnet Chan, S. Sharma, J. Yang, R. Olivares  : DMRG
   Ulf Ekstrom                                   : XCFun DFT Library
   Mihaly Kallay                                 : mrcc  (arbitrary order and MRCC methods)
   Andreas Klamt, Michael Diedenhofen            : otool_cosmo (COSMO solvation model)
   Jiri Pittner, Ondrej Demel                    : Mk-CCSD
   Frank Weinhold                                : gennbo (NPA and NBO analysis)
   Christopher J. Cramer and Donald G. Truhlar   : smd solvation model
   Lars Goerigk                                  : TD-DFT with DH, B97 family of functionals
   V. Asgeirsson, H. Jonsson                     : NEB implementation
   FAccTs GmbH                                   : IRC, NEB, NEB-TS, Multilevel, MM, QM/MM, CI optimization
   S Lehtola, MJT Oliveira, MAL Marques          : LibXC Library


 Your calculation uses the libint2 library for the computation of 2-el integrals
 For citations please refer to: http://libint.valeyev.net

 Your ORCA version has been built with support for libXC version: 4.2.3
 For citations please refer to: https://tddft.org/programs/libxc/

 This ORCA versions uses:
   CBLAS   interface :  Fast vector & matrix operations
   LAPACKE interface :  Fast linear algebra routines
   SCALAPACK package :  Parallel linear algebra routines


Your calculation utilizes the atom-pairwise dispersion correction
with the Becke-Johnson damping scheme (D3BJ)
Cite in your paper:
S.Grimme, S.Ehrlich, L.Goerigk, J Comput Chem, (2011), 32, 1456–1465 
S.Grimme, J.Antony, S.Ehrlich and H.Krieg, J.Chem.Phys., 132, (2010), 154104 
   

----- Orbital basis set information -----
Your calculation utilizes the basis: def2-TZVPPD
   F. Weigend and R. Ahlrichs, Phys. Chem. Chem. Phys. 7, 3297 (2005).
   D. Rappoport and F. Furche, J. Chem. Phys. 133 134105 (2010).

----- AuxC basis set information -----
Your calculation utilizes the auxiliary basis: def2-TZVPPD/C
   A. Hellweg, C. Hattig, S. Hofener and W. Klopper, Theor. Chem. Acc. 117, 587 (2007).

----- AuxJK basis set information -----
Your calculation utilizes the auxiliary basis: def2/JK
   H-Ba, Hf-Rn: F. Weigend, J. Comput. Chem. 29, 167 (2008).

================================================================================
                                        WARNINGS
                       Please study these warnings very carefully!
================================================================================


WARNING: No MP2 level density has been requested!
         To caclulate MP2 level properties use
         %mp2 Density relaxed end
         or
         %mp2 Density unrelaxed end
         Otherwise for double-hybrid DFT only the energy is correct!

WARNING: There are different parametrizations of Gershom Martin's DSD-DFs
         for use with and without D3(BJ)!
         You are using the D3(BJ) parametrized version,
         consistent with the 2013 article (S. Kozuch and J. M. L. Martin, JCC 2013, 34, 2327)

WARNING: The frozen-core approximation is turned on by default for 
         the MP2 part of double-hybrid DFT.

INFO   : the flag for use of LIBINT has been found!

================================================================================
                                       INPUT FILE
================================================================================
NAME = MOR08_ed05.in
|  1> #
|  2> # MOR08_ed05 ri-DSD-BLYP/2013-D3BJ/Def2-TZVPPD
|  3> #
|  4> ! rijk ri-dsd-blyp/2013 d3bj def2-tzvppd def2/jk def2-tzvppd/c grid4 nofinalgrid
|  5> 
|  6> *xyz 0 1
|  7> Mn      -0.000015    0.000034   -0.156112 
|  8> O       -2.966556    0.069032   -0.568565 
|  9> C       -1.835048    0.042703   -0.376221 
| 10> C        0.000106   -0.000266    1.691489 
| 11> O        0.000196   -0.000501    2.842648 
| 12> C        1.835004   -0.042558   -0.376374 
| 13> O        2.966501   -0.068795   -0.568793 
| 14> C        0.042608    1.834986   -0.376689 
| 15> O        0.068875    2.966413   -0.569532 
| 16> C       -0.042655   -1.834886   -0.377054 
| 17> O       -0.068962   -2.966280   -0.570073 
| 18> H       -0.000145    0.000318   -1.733571 
| 19> *
| 20> 
| 21> %maxcore 5000
| 22> 
| 23> %pal
| 24> nprocs = 24
| 25> end
| 26> 
| 27> 
| 28>                          ****END OF INPUT****
================================================================================

                       ****************************
                       * Single Point Calculation *
                       ****************************

---------------------------------
CARTESIAN COORDINATES (ANGSTROEM)
---------------------------------
  Mn    -0.000015    0.000034   -0.156112
  O     -2.966556    0.069032   -0.568565
  C     -1.835048    0.042703   -0.376221
  C      0.000106   -0.000266    1.691489
  O      0.000196   -0.000501    2.842648
  C      1.835004   -0.042558   -0.376374
  O      2.966501   -0.068795   -0.568793
  C      0.042608    1.834986   -0.376689
  O      0.068875    2.966413   -0.569532
  C     -0.042655   -1.834886   -0.377054
  O     -0.068962   -2.966280   -0.570073
  H     -0.000145    0.000318   -1.733571

----------------------------
CARTESIAN COORDINATES (A.U.)
----------------------------
  NO LB      ZA    FRAG     MASS         X           Y           Z
   0 Mn   25.0000    0    54.940   -0.000028    0.000064   -0.295009
   1 O     8.0000    0    15.999   -5.605978    0.130452   -1.074432
   2 C     6.0000    0    12.011   -3.467738    0.080697   -0.710955
   3 C     6.0000    0    12.011    0.000200   -0.000503    3.196451
   4 O     8.0000    0    15.999    0.000370   -0.000947    5.371826
   5 C     6.0000    0    12.011    3.467655   -0.080423   -0.711244
   6 O     8.0000    0    15.999    5.605874   -0.130004   -1.074863
   7 C     6.0000    0    12.011    0.080517    3.467621   -0.711839
   8 O     8.0000    0    15.999    0.130155    5.605708   -1.076260
   9 C     6.0000    0    12.011   -0.080606   -3.467432   -0.712529
  10 O     8.0000    0    15.999   -0.130319   -5.605457   -1.077282
  11 H     1.0000    0     1.008   -0.000274    0.000601   -3.275974

--------------------------------
INTERNAL COORDINATES (ANGSTROEM)
--------------------------------
 Mn     0   0   0     0.000000000000     0.00000000     0.00000000
 O      1   0   0     2.995871109693     0.00000000     0.00000000
 C      2   1   0     1.148041717291     1.73161333     0.00000000
 C      1   2   3     1.847601028318    97.91722965     0.00000000
 O      4   1   2     1.151159027505   179.99749875   108.23266519
 C      1   2   3     1.848681735040   165.24395151   179.99165883
 O      6   1   4     1.148041337557   177.19411049   180.01700720
 C      1   2   3     1.848653503327    89.05705601   263.19308037
 O      8   1   2     1.148044177838   177.18260780   277.87169018
 C      1   2   3     1.848665719746    89.05837728    96.78041205
 O     10   1   2     1.148042148985   177.18502860    82.12677139
 H      1   2   3     1.577459030922    82.08177762   179.99122719

---------------------------
INTERNAL COORDINATES (A.U.)
---------------------------
 Mn     0   0   0     0.000000000000     0.00000000     0.00000000
 O      1   0   0     5.661375929847     0.00000000     0.00000000
 C      2   1   0     2.169484435997     1.73161333     0.00000000
 C      1   2   3     3.491459948272    97.91722965     0.00000000
 O      4   1   2     2.175375298575   179.99749875   108.23266519
 C      1   2   3     3.493502188007   165.24395151   179.99165883
 O      6   1   4     2.169483718403   177.19411049   180.01700720
 C      1   2   3     3.493448837802    89.05705601   263.19308037
 O      8   1   2     2.169489085756   177.18260780   277.87169018
 C      1   2   3     3.493471923488    89.05837728    96.78041205
 O     10   1   2     2.169485251780   177.18502860    82.12677139
 H      1   2   3     2.980965555923    82.08177762   179.99122719

---------------------
BASIS SET INFORMATION
---------------------
There are 4 groups of distinct atoms

 Group   1 Type Mn  : 17s13p7d2f1g contracted to 6s6p4d2f1g pattern {842111/631111/4111/11/1}
 Group   2 Type O   : 12s7p3d1f contracted to 6s4p3d1f pattern {621111/4111/111/1}
 Group   3 Type C   : 12s6p3d1f contracted to 6s3p3d1f pattern {621111/411/111/1}
 Group   4 Type H   : 5s3p1d contracted to 3s3p1d pattern {311/111/1}

Atom   0Mn   basis set group =>   1
Atom   1O    basis set group =>   2
Atom   2C    basis set group =>   3
Atom   3C    basis set group =>   3
Atom   4O    basis set group =>   2
Atom   5C    basis set group =>   3
Atom   6O    basis set group =>   2
Atom   7C    basis set group =>   3
Atom   8O    basis set group =>   2
Atom   9C    basis set group =>   3
Atom  10O    basis set group =>   2
Atom  11H    basis set group =>   4
---------------------------------
AUXILIARY/C BASIS SET INFORMATION
---------------------------------
There are 4 groups of distinct atoms

 Group   1 Type Mn  : 10s10p9d7f5g3h1i contracted to 10s10p9d7f5g3h1i pattern {1111111111/1111111111/111111111/1111111/11111/111/1}
 Group   2 Type O   : 9s7p6d4f1g contracted to 9s7p5d4f1g pattern {111111111/1111111/21111/1111/1}
 Group   3 Type C   : 9s7p6d4f1g contracted to 9s7p5d4f1g pattern {111111111/1111111/21111/1111/1}
 Group   4 Type H   : 5s4p3d1f contracted to 5s4p3d1f pattern {11111/1111/111/1}

Atom   0Mn   basis set group =>   1
Atom   1O    basis set group =>   2
Atom   2C    basis set group =>   3
Atom   3C    basis set group =>   3
Atom   4O    basis set group =>   2
Atom   5C    basis set group =>   3
Atom   6O    basis set group =>   2
Atom   7C    basis set group =>   3
Atom   8O    basis set group =>   2
Atom   9C    basis set group =>   3
Atom  10O    basis set group =>   2
Atom  11H    basis set group =>   4
----------------------------------
AUXILIARY/JK BASIS SET INFORMATION
----------------------------------
There are 4 groups of distinct atoms

 Group   1 Type Mn  : 19s14p12d10f7g3h1i contracted to 16s13p11d9f5g3h1i pattern {4111111111111111/2111111111111/21111111111/211111111/31111/111/1}
 Group   2 Type O   : 14s10p6d2f1g contracted to 10s8p4d2f1g pattern {5111111111/31111111/3111/11/1}
 Group   3 Type C   : 14s10p6d2f1g contracted to 10s8p5d1f1g pattern {5111111111/31111111/21111/2/1}
 Group   4 Type H   : 4s2p2d contracted to 2s2p2d pattern {31/11/11}

Atom   0Mn   basis set group =>   1
Atom   1O    basis set group =>   2
Atom   2C    basis set group =>   3
Atom   3C    basis set group =>   3
Atom   4O    basis set group =>   2
Atom   5C    basis set group =>   3
Atom   6O    basis set group =>   2
Atom   7C    basis set group =>   3
Atom   8O    basis set group =>   2
Atom   9C    basis set group =>   3
Atom  10O    basis set group =>   2
Atom  11H    basis set group =>   4


           ************************************************************
           *        Program running with 24 parallel MPI-processes    *
           *              working on a common directory               *
           ************************************************************
------------------------------------------------------------------------------
                           ORCA GTO INTEGRAL CALCULATION
                           -- RI-GTO INTEGRALS CHOSEN --
------------------------------------------------------------------------------

                         BASIS SET STATISTICS AND STARTUP INFO

Gaussian basis set:
 # of primitive gaussian shells          ...  274
 # of primitive gaussian functions       ...  668
 # of contracted shells                  ...  161
 # of contracted basis functions         ...  469
 Highest angular momentum                ...    4
 Maximum contraction depth               ...    8
Auxiliary gaussian basis set:
 # of primitive gaussian shells          ...  404
 # of primitive gaussian functions       ... 1290
 # of contracted shells                  ...  314
 # of contracted aux-basis functions     ... 1042
 Highest angular momentum                ...    6
 Maximum contraction depth               ...    5
Ratio of auxiliary to basis functions    ...  2.22
Integral package used                  ... LIBINT
 One Electron integrals                  ... done
 Ordering auxiliary basis shells         ... done
 Integral threshhold             Thresh  ...  1.000e-10
 Primitive cut-off               TCut    ...  1.000e-11
 Pre-screening matrix                    ... done
 Shell pair data                         ... 
 Ordering of the shell pairs             ... done (   0.002 sec) 11723 of 13041 pairs
 Determination of significant pairs      ... done (   0.000 sec)
 Creation of shell pair data             ... done (   0.001 sec)
 Storage of shell pair data              ... done (   0.001 sec)
 Shell pair data done in (   0.004 sec)
 Computing two index integrals           ... done
 Cholesky decomposition of the V-matrix  ... done


Timings:
 Total evaluation time                   ...   0.491 sec (  0.008 min)
 One electron matrix time                ...   0.117 sec (  0.002 min) = 23.8%
 Schwartz matrix evaluation time         ...   0.232 sec (  0.004 min) = 47.3%
 Two index repulsion integral time       ...   0.058 sec (  0.001 min) = 11.8%
 Cholesky decomposition of V             ...   0.048 sec (  0.001 min) =  9.9%
 Three index repulsion integral time     ...   0.000 sec (  0.000 min) =  0.0%



           ************************************************************
           *        Program running with 24 parallel MPI-processes    *
           *              working on a common directory               *
           ************************************************************
-------------------------------------------------------------------------------
                                 ORCA SCF
-------------------------------------------------------------------------------

------------
SCF SETTINGS
------------
Hamiltonian:
 Density Functional     Method          .... DFT(GTOs)
 Exchange Functional    Exchange        .... B88
   X-Alpha parameter    XAlpha          ....  0.666667
   Becke's b parameter  XBeta           ....  0.004200
 Correlation Functional Correlation     .... LYP
 LDA part of GGA corr.  LDAOpt          .... VWN-5
 Gradients option       PostSCFGGA      .... off
 Hybrid DFT is turned on
   Fraction HF Exchange ScalHFX         ....  0.710000
   Scaling of DF-GGA-X  ScalDFX         ....  0.290000
   Scaling of DF-GGA-C  ScalDFC         ....  0.540000
   Scaling of DF-LDA-C  ScalLDAC        ....  0.540000
   Perturbative correction              ....  1.000000
   Density functional embedding theory  .... OFF
 RI-approximation to the Coulomb term is turned on
   Number of auxiliary basis functions  .... 1042
   RI-JK (J+K treated both via RI)      .... on


General Settings:
 Integral files         IntName         .... MOR08_ed05
 Hartree-Fock type      HFTyp           .... RHF
 Total Charge           Charge          ....    0
 Multiplicity           Mult            ....    1
 Number of Electrons    NEL             ....   96
 Basis Dimension        Dim             ....  469
 Nuclear Repulsion      ENuc            ....    797.8872903274 Eh

Convergence Acceleration:
 DIIS                   CNVDIIS         .... on
   Start iteration      DIISMaxIt       ....    12
   Startup error        DIISStart       ....  0.200000
   # of expansion vecs  DIISMaxEq       ....     5
   Bias factor          DIISBfac        ....   1.050
   Max. coefficient     DIISMaxC        ....  10.000
 Newton-Raphson         CNVNR           .... off
 SOSCF                  CNVSOSCF        .... off
 Level Shifting         CNVShift        .... on
   Level shift para.    LevelShift      ....    0.2500
   Turn off err/grad.   ShiftErr        ....    0.0010
 Zerner damping         CNVZerner       .... off
 Static damping         CNVDamp         .... on
   Fraction old density DampFac         ....    0.7000
   Max. Damping (<1)    DampMax         ....    0.9800
   Min. Damping (>=0)   DampMin         ....    0.0000
   Turn off err/grad.   DampErr         ....    0.1000
 Fernandez-Rico         CNVRico         .... off

SCF Procedure:
 Maximum # iterations   MaxIter         ....   125
 SCF integral mode      SCFMode         .... Direct
   Integral package                     .... LIBINT
 Reset frequency        DirectResetFreq ....    20
 Integral Threshold     Thresh          ....  1.000e-10 Eh
 Primitive CutOff       TCut            ....  1.000e-11 Eh

Convergence Tolerance:
 Convergence Check Mode ConvCheckMode   .... Total+1el-Energy
 Convergence forced     ConvForced      .... 0
 Energy Change          TolE            ....  1.000e-06 Eh
 1-El. energy change                    ....  1.000e-03 Eh
 DIIS Error             TolErr          ....  1.000e-06


Diagonalization of the overlap matrix:
Smallest eigenvalue                        ... 1.809e-06
Time for diagonalization                   ...    0.035 sec
Threshold for overlap eigenvalues          ... 1.000e-08
Number of eigenvalues below threshold      ... 0
Time for construction of square roots      ...    0.030 sec
Total time needed                          ...    0.066 sec

-------------------
DFT GRID GENERATION
-------------------

General Integration Accuracy     IntAcc      ...  4.670
Radial Grid Type                 RadialGrid  ... Gauss-Chebyshev
Angular Grid (max. acc.)         AngularGrid ... Lebedev-302
Angular grid pruning method      GridPruning ... 3 (G Style)
Weight generation scheme         WeightScheme... Becke
Basis function cutoff            BFCut       ...    1.0000e-10
Integration weight cutoff        WCut        ...    1.0000e-14
Grids for H and He will be reduced by one unit

# of grid points (after initial pruning)     ...  75178 (   0.0 sec)
# of grid points (after weights+screening)   ...  70507 (   0.0 sec)
nearest neighbour list constructed           ...    0.0 sec
Grid point re-assignment to atoms done       ...    0.0 sec
Grid point division into batches done        ...    0.3 sec
Reduced shell lists constructed in    0.5 sec

Total number of grid points                  ...    70507
Total number of batches                      ...     1106
Average number of points per batch           ...       63
Average number of grid points per atom       ...     5876
Average number of shells per batch           ...   123.69 (76.82%)
Average number of basis functions per batch  ...   376.60 (80.30%)
Average number of large shells per batch     ...   107.50 (86.91%)
Average number of large basis fcns per batch ...   325.58 (86.45%)
Average number of aux-shells per batch       ...   123.69 (39.39%)
Average number of aux functions per batch    ...   376.60 (36.14%)
Maximum spatial batch extension              ...   1.38,  1.38,  1.24 au
Average spatial batch extension              ...   0.05,  0.05,  0.04 au

Time for grid setup =    0.510 sec

------------------------------
INITIAL GUESS: MODEL POTENTIAL
------------------------------
Loading Hartree-Fock densities                     ... done
Calculating cut-offs                               ... done
Setting up the integral package                    ... done
Initializing the effective Hamiltonian             ... done
Starting the Coulomb interaction                   ... done (   0.0 sec)
Reading the grid                                   ... done
Mapping shells                                     ... done
Starting the XC term evaluation                    ... done (   0.1 sec)
  promolecular density results
     # of electrons  =     95.999720786
     EX              =   -117.793730158
     EC              =     -0.481559968
     EX+EC           =   -118.275290126
Transforming the Hamiltonian                       ... done (   0.0 sec)
Diagonalizing the Hamiltonian                      ... done (   0.0 sec)
Back transforming the eigenvectors                 ... done (   0.0 sec)
Now organizing SCF variables                       ... done
                      ------------------
                      INITIAL GUESS DONE (   0.8 sec)
                      ------------------
--------------
SCF ITERATIONS
--------------
ITER       Energy         Delta-E        Max-DP      RMS-DP      [F,P]     Damp
  0  -1716.0386339207   0.000000000000 0.19814433  0.00090194  0.1871995 0.7000
  1  -1715.9441784563   0.094455464428 0.19464113  0.00080651  0.1528891 0.7000
                               ***Turning on DIIS***
  2  -1715.9740141472  -0.029835690932 0.16098328  0.00064616  0.1275432 0.7000
  3  -1716.0766438351  -0.102629687856 0.11425713  0.00048721  0.1046827 0.7000
  4  -1716.2241344958  -0.147490660729 0.21282984  0.00107985  0.0616647 0.0000
  5  -1716.2756770579  -0.051542562074 0.02392212  0.00023410  0.0395505 0.0000
  6  -1716.2845399366  -0.008862878753 0.01704687  0.00014748  0.0079362 0.0000
  7  -1716.2849512493  -0.000411312720 0.00657439  0.00005679  0.0136968 0.0000
  8  -1716.2851974873  -0.000246237936 0.00535853  0.00005587  0.0019570 0.0000
  9  -1716.2852406428  -0.000043155569 0.00134052  0.00002220  0.0012289 0.0000
 10  -1716.2852512579  -0.000010615014 0.00249626  0.00003233  0.0009575 0.0000
 11  -1716.2852572156  -0.000005957788 0.00174064  0.00001903  0.0001855 0.0000
                 **** Energy Check signals convergence ****

               *****************************************************
               *                     SUCCESS                       *
               *           SCF CONVERGED AFTER  12 CYCLES          *
               *****************************************************


----------------
TOTAL SCF ENERGY
----------------

Total Energy       :        -1716.28525740 Eh          -46702.49616 eV

Components:
Nuclear Repulsion  :          797.88729033 Eh           21711.61697 eV
Electronic Energy  :        -2514.17254773 Eh          -68414.11313 eV
One Electron Energy:        -3946.60734270 Eh         -107392.64553 eV
Two Electron Energy:         1432.43479497 Eh           38978.53240 eV

Virial components:
Potential Energy   :        -3429.99645422 Eh          -93334.94858 eV
Kinetic Energy     :         1713.71119682 Eh           46632.45241 eV
Virial Ratio       :            2.00150204


DFT components:
N(Alpha)           :       48.000078865615 electrons
N(Beta)            :       48.000078865615 electrons
N(Total)           :       96.000157731229 electrons
E(X)               :      -34.349766295783 Eh       
E(C)               :       -1.985605444401 Eh       
E(XC)              :      -36.335371740184 Eh       
DFET-embed. en.    :        0.000000000000 Eh       

---------------
SCF CONVERGENCE
---------------

  Last Energy change         ...   -1.8673e-07  Tolerance :   1.0000e-06
  Last MAX-Density change    ...    6.5252e-04  Tolerance :   1.0000e-05
  Last RMS-Density change    ...    9.8855e-06  Tolerance :   1.0000e-06
  Last DIIS Error            ...    6.3322e-05  Tolerance :   1.0000e-06

             **** THE GBW FILE WAS UPDATED (MOR08_ed05.gbw) ****
             **** DENSITY FILE WAS UPDATED (MOR08_ed05.scfp) ****
             **** ENERGY FILE WAS UPDATED (MOR08_ed05.en.tmp) ****
             **** THE GBW FILE WAS UPDATED (MOR08_ed05.gbw) ****
             **** DENSITY FILE WAS UPDATED (MOR08_ed05.scfp) ****
----------------
ORBITAL ENERGIES
----------------

  NO   OCC          E(Eh)            E(eV) 
   0   2.0000    -238.757949     -6496.9341 
   1   2.0000     -28.517734      -776.0070 
   2   2.0000     -24.355587      -662.7492 
   3   2.0000     -24.355587      -662.7492 
   4   2.0000     -24.351948      -662.6502 
   5   2.0000     -20.158324      -548.5359 
   6   2.0000     -20.157758      -548.5205 
   7   2.0000     -20.157755      -548.5204 
   8   2.0000     -20.157742      -548.5200 
   9   2.0000     -20.157736      -548.5199 
  10   2.0000     -11.014511      -299.7201 
  11   2.0000     -11.014187      -299.7113 
  12   2.0000     -11.014185      -299.7112 
  13   2.0000     -11.014176      -299.7110 
  14   2.0000     -11.014172      -299.7109 
  15   2.0000      -3.595104       -97.8278 
  16   2.0000      -2.336428       -63.5774 
  17   2.0000      -2.336427       -63.5774 
  18   2.0000      -2.327970       -63.3473 
  19   2.0000      -1.393424       -37.9170 
  20   2.0000      -1.392512       -37.8922 
  21   2.0000      -1.392496       -37.8917 
  22   2.0000      -1.391858       -37.8744 
  23   2.0000      -1.391246       -37.8577 
  24   2.0000      -0.783612       -21.3232 
  25   2.0000      -0.738235       -20.0884 
  26   2.0000      -0.738221       -20.0880 
  27   2.0000      -0.737543       -20.0696 
  28   2.0000      -0.732157       -19.9230 
  29   2.0000      -0.660839       -17.9823 
  30   2.0000      -0.615277       -16.7425 
  31   2.0000      -0.609048       -16.5730 
  32   2.0000      -0.609044       -16.5729 
  33   2.0000      -0.605507       -16.4767 
  34   2.0000      -0.603736       -16.4285 
  35   2.0000      -0.603727       -16.4282 
  36   2.0000      -0.589080       -16.0297 
  37   2.0000      -0.585765       -15.9395 
  38   2.0000      -0.585763       -15.9394 
  39   2.0000      -0.579639       -15.7728 
  40   2.0000      -0.571181       -15.5426 
  41   2.0000      -0.570498       -15.5240 
  42   2.0000      -0.549523       -14.9533 
  43   2.0000      -0.549513       -14.9530 
  44   2.0000      -0.377549       -10.2736 
  45   2.0000      -0.373378       -10.1601 
  46   2.0000      -0.370305       -10.0765 
  47   2.0000      -0.370284       -10.0760 
  48   0.0000       0.025441         0.6923 
  49   0.0000       0.038506         1.0478 
  50   0.0000       0.038507         1.0478 
  51   0.0000       0.046975         1.2783 
  52   0.0000       0.049015         1.3338 
  53   0.0000       0.049024         1.3340 
  54   0.0000       0.053425         1.4538 
  55   0.0000       0.059079         1.6076 
  56   0.0000       0.059099         1.6082 
  57   0.0000       0.059483         1.6186 
  58   0.0000       0.066802         1.8178 
  59   0.0000       0.071613         1.9487 
  60   0.0000       0.072422         1.9707 
  61   0.0000       0.082736         2.2514 
  62   0.0000       0.082752         2.2518 
  63   0.0000       0.084605         2.3022 
  64   0.0000       0.092773         2.5245 
  65   0.0000       0.092789         2.5249 
  66   0.0000       0.104512         2.8439 
  67   0.0000       0.104530         2.8444 
  68   0.0000       0.111337         3.0296 
  69   0.0000       0.122020         3.3203 
  70   0.0000       0.129384         3.5207 
  71   0.0000       0.129397         3.5211 
  72   0.0000       0.132618         3.6087 
  73   0.0000       0.133963         3.6453 
  74   0.0000       0.158592         4.3155 
  75   0.0000       0.161233         4.3874 
  76   0.0000       0.164907         4.4873 
  77   0.0000       0.164918         4.4876 
  78   0.0000       0.171712         4.6725 
  79   0.0000       0.171714         4.6726 
  80   0.0000       0.172920         4.7054 
  81   0.0000       0.173934         4.7330 
  82   0.0000       0.194272         5.2864 
  83   0.0000       0.195156         5.3105 
  84   0.0000       0.217507         5.9187 
  85   0.0000       0.228723         6.2239 
  86   0.0000       0.253114         6.8876 
  87   0.0000       0.253157         6.8888 
  88   0.0000       0.262069         7.1312 
  89   0.0000       0.268804         7.3145 
  90   0.0000       0.276952         7.5362 
  91   0.0000       0.276970         7.5367 
  92   0.0000       0.284526         7.7423 
  93   0.0000       0.289437         7.8760 
  94   0.0000       0.292369         7.9558 
  95   0.0000       0.292371         7.9558 
  96   0.0000       0.306261         8.3338 
  97   0.0000       0.308665         8.3992 
  98   0.0000       0.321977         8.7614 
  99   0.0000       0.324925         8.8416 
 100   0.0000       0.324958         8.8425 
 101   0.0000       0.340222         9.2579 
 102   0.0000       0.362033         9.8514 
 103   0.0000       0.362082         9.8527 
 104   0.0000       0.376647        10.2491 
 105   0.0000       0.378573        10.3015 
 106   0.0000       0.382242        10.4013 
 107   0.0000       0.385505        10.4901 
 108   0.0000       0.385549        10.4913 
 109   0.0000       0.395196        10.7538 
 110   0.0000       0.399146        10.8613 
 111   0.0000       0.406961        11.0740 
 112   0.0000       0.407003        11.0751 
 113   0.0000       0.425752        11.5853 
 114   0.0000       0.426170        11.5967 
 115   0.0000       0.426216        11.5979 
 116   0.0000       0.444723        12.1015 
 117   0.0000       0.499414        13.5897 
 118   0.0000       0.499428        13.5901 
 119   0.0000       0.511528        13.9194 
 120   0.0000       0.520148        14.1539 
 121   0.0000       0.526887        14.3373 
 122   0.0000       0.533181        14.5086 
 123   0.0000       0.542610        14.7652 
 124   0.0000       0.545670        14.8484 
 125   0.0000       0.545771        14.8512 
 126   0.0000       0.559158        15.2155 
 127   0.0000       0.567003        15.4289 
 128   0.0000       0.567040        15.4300 
 129   0.0000       0.577374        15.7111 
 130   0.0000       0.577377        15.7112 
 131   0.0000       0.596875        16.2418 
 132   0.0000       0.602530        16.3957 
 133   0.0000       0.608431        16.5562 
 134   0.0000       0.608503        16.5582 
 135   0.0000       0.611050        16.6275 
 136   0.0000       0.611179        16.6310 
 137   0.0000       0.622101        16.9282 
 138   0.0000       0.622150        16.9296 
 139   0.0000       0.625225        17.0132 
 140   0.0000       0.628512        17.1027 
 141   0.0000       0.638825        17.3833 
 142   0.0000       0.640472        17.4281 
 143   0.0000       0.656718        17.8702 
 144   0.0000       0.656842        17.8736 
 145   0.0000       0.659492        17.9457 
 146   0.0000       0.659522        17.9465 
 147   0.0000       0.660423        17.9710 
 148   0.0000       0.664641        18.0858 
 149   0.0000       0.684655        18.6304 
 150   0.0000       0.684704        18.6317 
 151   0.0000       0.685875        18.6636 
 152   0.0000       0.693896        18.8819 
 153   0.0000       0.709952        19.3188 
 154   0.0000       0.726453        19.7678 
 155   0.0000       0.739387        20.1197 
 156   0.0000       0.741616        20.1804 
 157   0.0000       0.741624        20.1806 
 158   0.0000       0.750760        20.4292 
 159   0.0000       0.755060        20.5462 
 160   0.0000       0.755128        20.5481 
 161   0.0000       0.775623        21.1058 
 162   0.0000       0.775663        21.1069 
 163   0.0000       0.781179        21.2570 
 164   0.0000       0.801770        21.8173 
 165   0.0000       0.805157        21.9094 
 166   0.0000       0.808618        22.0036 
 167   0.0000       0.810696        22.0602 
 168   0.0000       0.810726        22.0610 
 169   0.0000       0.820145        22.3173 
 170   0.0000       0.858018        23.3478 
 171   0.0000       0.861241        23.4356 
 172   0.0000       0.861305        23.4373 
 173   0.0000       0.877993        23.8914 
 174   0.0000       0.890727        24.2379 
 175   0.0000       0.923253        25.1230 
 176   0.0000       0.925558        25.1857 
 177   0.0000       0.936447        25.4820 
 178   0.0000       0.936455        25.4822 
 179   0.0000       0.943228        25.6665 
 180   0.0000       0.962674        26.1957 
 181   0.0000       0.970462        26.4076 
 182   0.0000       0.970529        26.4094 
 183   0.0000       0.984053        26.7775 
 184   0.0000       0.997295        27.1378 
 185   0.0000       0.997372        27.1399 
 186   0.0000       0.998405        27.1680 
 187   0.0000       1.019940        27.7540 
 188   0.0000       1.035544        28.1786 
 189   0.0000       1.041671        28.3453 
 190   0.0000       1.041724        28.3467 
 191   0.0000       1.092045        29.7161 
 192   0.0000       1.102770        30.0079 
 193   0.0000       1.102796        30.0086 
 194   0.0000       1.108428        30.1619 
 195   0.0000       1.108441        30.1622 
 196   0.0000       1.108461        30.1628 
 197   0.0000       1.114548        30.3284 
 198   0.0000       1.121621        30.5209 
 199   0.0000       1.124062        30.5873 
 200   0.0000       1.152332        31.3565 
 201   0.0000       1.158983        31.5375 
 202   0.0000       1.166184        31.7335 
 203   0.0000       1.166194        31.7337 
 204   0.0000       1.205218        32.7957 
 205   0.0000       1.205318        32.7984 
 206   0.0000       1.215867        33.0854 
 207   0.0000       1.237331        33.6695 
 208   0.0000       1.237466        33.6732 
 209   0.0000       1.323886        36.0248 
 210   0.0000       1.351873        36.7863 
 211   0.0000       1.352740        36.8099 
 212   0.0000       1.390559        37.8390 
 213   0.0000       1.399264        38.0759 
 214   0.0000       1.399331        38.0777 
 215   0.0000       1.405159        38.2363 
 216   0.0000       1.409068        38.3427 
 217   0.0000       1.409093        38.3434 
 218   0.0000       1.417496        38.5720 
 219   0.0000       1.478490        40.2317 
 220   0.0000       1.551107        42.2078 
 221   0.0000       1.551145        42.2088 
 222   0.0000       1.586633        43.1745 
 223   0.0000       1.624673        44.2096 
 224   0.0000       1.650000        44.8988 
 225   0.0000       1.650032        44.8996 
 226   0.0000       1.726917        46.9918 
 227   0.0000       1.789729        48.7010 
 228   0.0000       1.800461        48.9930 
 229   0.0000       1.827339        49.7244 
 230   0.0000       1.827383        49.7256 
 231   0.0000       1.832914        49.8761 
 232   0.0000       1.844373        50.1880 
 233   0.0000       1.866636        50.7938 
 234   0.0000       1.891833        51.4794 
 235   0.0000       1.891848        51.4798 
 236   0.0000       1.902049        51.7574 
 237   0.0000       1.902102        51.7588 
 238   0.0000       1.911656        52.0188 
 239   0.0000       1.920024        52.2465 
 240   0.0000       1.921900        52.2975 
 241   0.0000       1.934575        52.6425 
 242   0.0000       1.934598        52.6431 
 243   0.0000       1.950506        53.0760 
 244   0.0000       1.978439        53.8361 
 245   0.0000       1.982688        53.9517 
 246   0.0000       1.982708        53.9522 
 247   0.0000       1.989113        54.1265 
 248   0.0000       1.992628        54.2222 
 249   0.0000       2.020558        54.9822 
 250   0.0000       2.044124        55.6234 
 251   0.0000       2.047718        55.7212 
 252   0.0000       2.047755        55.7222 
 253   0.0000       2.080822        56.6220 
 254   0.0000       2.080860        56.6231 
 255   0.0000       2.082933        56.6795 
 256   0.0000       2.116084        57.5816 
 257   0.0000       2.157905        58.7196 
 258   0.0000       2.189788        59.5872 
 259   0.0000       2.213020        60.2193 
 260   0.0000       2.222437        60.4756 
 261   0.0000       2.222506        60.4775 
 262   0.0000       2.259705        61.4897 
 263   0.0000       2.259765        61.4913 
 264   0.0000       2.320369        63.1404 
 265   0.0000       2.395159        65.1756 
 266   0.0000       2.403391        65.3996 
 267   0.0000       2.403446        65.4011 
 268   0.0000       2.450499        66.6815 
 269   0.0000       2.505148        68.1685 
 270   0.0000       2.505291        68.1724 
 271   0.0000       2.515500        68.4502 
 272   0.0000       2.515615        68.4534 
 273   0.0000       2.566404        69.8354 
 274   0.0000       2.566495        69.8379 
 275   0.0000       2.568049        69.8802 
 276   0.0000       2.626854        71.4803 
 277   0.0000       2.641665        71.8834 
 278   0.0000       2.655935        72.2717 
 279   0.0000       2.655957        72.2723 
 280   0.0000       2.774067        75.4862 
 281   0.0000       2.777108        75.5690 
 282   0.0000       2.827110        76.9296 
 283   0.0000       2.827132        76.9302 
 284   0.0000       2.838790        77.2474 
 285   0.0000       2.845777        77.4375 
 286   0.0000       2.845832        77.4390 
 287   0.0000       2.851680        77.5982 
 288   0.0000       2.851689        77.5984 
 289   0.0000       2.862326        77.8879 
 290   0.0000       2.870356        78.1064 
 291   0.0000       2.907617        79.1203 
 292   0.0000       2.991147        81.3932 
 293   0.0000       2.991174        81.3940 
 294   0.0000       2.993564        81.4590 
 295   0.0000       3.021365        82.2155 
 296   0.0000       3.025306        82.3228 
 297   0.0000       3.025374        82.3246 
 298   0.0000       3.026953        82.3676 
 299   0.0000       3.038979        82.6948 
 300   0.0000       3.039010        82.6957 
 301   0.0000       3.039146        82.6994 
 302   0.0000       3.124621        85.0253 
 303   0.0000       3.144580        85.5684 
 304   0.0000       3.193475        86.8989 
 305   0.0000       3.217757        87.5596 
 306   0.0000       3.221933        87.6732 
 307   0.0000       3.221994        87.6749 
 308   0.0000       3.236191        88.0612 
 309   0.0000       3.241941        88.2177 
 310   0.0000       3.253560        88.5339 
 311   0.0000       3.253580        88.5344 
 312   0.0000       3.274121        89.0934 
 313   0.0000       3.274270        89.0974 
 314   0.0000       3.291854        89.5759 
 315   0.0000       3.291858        89.5760 
 316   0.0000       3.299199        89.7758 
 317   0.0000       3.326632        90.5223 
 318   0.0000       3.328007        90.5597 
 319   0.0000       3.330269        90.6212 
 320   0.0000       3.367598        91.6370 
 321   0.0000       3.367723        91.6404 
 322   0.0000       3.390636        92.2639 
 323   0.0000       3.402995        92.6002 
 324   0.0000       3.414169        92.9042 
 325   0.0000       3.414293        92.9076 
 326   0.0000       3.417595        92.9975 
 327   0.0000       3.451343        93.9158 
 328   0.0000       3.485327        94.8406 
 329   0.0000       3.485402        94.8426 
 330   0.0000       3.500793        95.2614 
 331   0.0000       3.504791        95.3702 
 332   0.0000       3.507427        95.4419 
 333   0.0000       3.533211        96.1436 
 334   0.0000       3.556886        96.7878 
 335   0.0000       3.593740        97.7906 
 336   0.0000       3.593815        97.7927 
 337   0.0000       3.604468        98.0826 
 338   0.0000       3.626522        98.6827 
 339   0.0000       3.644281        99.1659 
 340   0.0000       3.644284        99.1660 
 341   0.0000       3.667577        99.7998 
 342   0.0000       3.681621       100.1820 
 343   0.0000       3.681673       100.1834 
 344   0.0000       3.738215       101.7220 
 345   0.0000       3.769472       102.5725 
 346   0.0000       3.771906       102.6388 
 347   0.0000       3.859507       105.0225 
 348   0.0000       3.862505       105.1041 
 349   0.0000       3.862513       105.1043 
 350   0.0000       3.880948       105.6060 
 351   0.0000       3.884080       105.6912 
 352   0.0000       3.884369       105.6990 
 353   0.0000       3.996018       108.7372 
 354   0.0000       4.055355       110.3518 
 355   0.0000       4.055430       110.3539 
 356   0.0000       4.081217       111.0555 
 357   0.0000       4.123268       112.1998 
 358   0.0000       4.123336       112.2017 
 359   0.0000       4.126649       112.2918 
 360   0.0000       4.140723       112.6748 
 361   0.0000       4.154184       113.0411 
 362   0.0000       4.191350       114.0524 
 363   0.0000       4.201928       114.3403 
 364   0.0000       4.202017       114.3427 
 365   0.0000       4.226163       114.9997 
 366   0.0000       4.375383       119.0602 
 367   0.0000       4.375415       119.0611 
 368   0.0000       4.411641       120.0468 
 369   0.0000       4.533964       123.3754 
 370   0.0000       4.569104       124.3316 
 371   0.0000       4.569565       124.3442 
 372   0.0000       4.647344       126.4606 
 373   0.0000       4.690388       127.6320 
 374   0.0000       4.690507       127.6352 
 375   0.0000       4.712453       128.2324 
 376   0.0000       4.770713       129.8177 
 377   0.0000       4.943394       134.5166 
 378   0.0000       5.138373       139.8222 
 379   0.0000       5.138376       139.8223 
 380   0.0000       5.202156       141.5579 
 381   0.0000       5.269648       143.3944 
 382   0.0000       5.337616       145.2439 
 383   0.0000       5.351850       145.6312 
 384   0.0000       5.351852       145.6313 
 385   0.0000       5.353903       145.6871 
 386   0.0000       5.354122       145.6931 
 387   0.0000       5.354529       145.7042 
 388   0.0000       5.354549       145.7047 
 389   0.0000       5.354634       145.7070 
 390   0.0000       5.358176       145.8034 
 391   0.0000       5.358196       145.8039 
 392   0.0000       5.405967       147.1039 
 393   0.0000       5.753512       156.5610 
 394   0.0000       5.758464       156.6958 
 395   0.0000       5.770531       157.0241 
 396   0.0000       5.773109       157.0943 
 397   0.0000       5.773136       157.0950 
 398   0.0000       5.779869       157.2782 
 399   0.0000       5.793435       157.6474 
 400   0.0000       5.793452       157.6478 
 401   0.0000       5.876504       159.9078 
 402   0.0000       5.902110       160.6046 
 403   0.0000       6.436111       175.1355 
 404   0.0000       6.474898       176.1909 
 405   0.0000       6.474910       176.1912 
 406   0.0000       6.582683       179.1239 
 407   0.0000       6.618355       180.0946 
 408   0.0000       6.628851       180.3802 
 409   0.0000       6.628995       180.3841 
 410   0.0000       6.636919       180.5997 
 411   0.0000       6.636981       180.6014 
 412   0.0000       6.707180       182.5116 
 413   0.0000       6.711363       182.6255 
 414   0.0000       6.716683       182.7702 
 415   0.0000       6.716725       182.7714 
 416   0.0000       6.723403       182.9531 
 417   0.0000       6.734708       183.2607 
 418   0.0000       6.745393       183.5515 
 419   0.0000       6.745410       183.5519 
 420   0.0000       6.748545       183.6372 
 421   0.0000       6.753857       183.7818 
 422   0.0000       6.773427       184.3143 
 423   0.0000       6.930072       188.5768 
 424   0.0000       6.936299       188.7463 
 425   0.0000       6.936306       188.7465 
 426   0.0000       6.953152       189.2049 
 427   0.0000       6.955567       189.2706 
 428   0.0000       7.133448       194.1110 
 429   0.0000       7.153700       194.6621 
 430   0.0000       7.153736       194.6631 
 431   0.0000       7.168172       195.0559 
 432   0.0000       7.176831       195.2915 
 433   0.0000       7.176846       195.2919 
 434   0.0000       7.182886       195.4563 
 435   0.0000       7.187701       195.5873 
 436   0.0000       7.195601       195.8023 
 437   0.0000       7.195635       195.8032 
 438   0.0000       7.490561       203.8285 
 439   0.0000       7.503960       204.1931 
 440   0.0000       7.503984       204.1938 
 441   0.0000       7.521934       204.6822 
 442   0.0000       7.524197       204.7438 
 443   0.0000       7.525319       204.7743 
 444   0.0000       7.548661       205.4095 
 445   0.0000       7.548712       205.4109 
 446   0.0000       7.748597       210.8501 
 447   0.0000       7.748642       210.8513 
 448   0.0000       7.748751       210.8542 
 449   0.0000       7.900710       214.9892 
 450   0.0000       8.029184       218.4852 
 451   0.0000       8.223390       223.7698 
 452   0.0000       8.432794       229.4680 
 453   0.0000       8.718038       237.2299 
 454   0.0000       8.718091       237.2313 
 455   0.0000       8.884033       241.7468 
 456   0.0000       9.218275       250.8420 
 457   0.0000       9.218379       250.8448 
 458   0.0000       9.278436       252.4791 
 459   0.0000      24.030786       653.9109 
 460   0.0000      24.030943       653.9152 
 461   0.0000      24.277263       660.6179 
 462   0.0000      24.322567       661.8507 
 463   0.0000      24.411370       664.2672 
 464   0.0000      45.070537      1226.4317 
 465   0.0000      45.197284      1229.8806 
 466   0.0000      45.197358      1229.8826 
 467   0.0000      45.230466      1230.7835 
 468   0.0000      45.282273      1232.1933 

                    ********************************
                    * MULLIKEN POPULATION ANALYSIS *
                    ********************************

-----------------------
MULLIKEN ATOMIC CHARGES
-----------------------
   0 Mn:    0.667771
   1 O :   -0.311339
   2 C :    0.277114
   3 C :    0.012956
   4 O :   -0.327822
   5 C :    0.277651
   6 O :   -0.311300
   7 C :    0.275421
   8 O :   -0.311379
   9 C :    0.275653
  10 O :   -0.311375
  11 H :   -0.213350
Sum of atomic charges:   -0.0000000

--------------------------------
MULLIKEN REDUCED ORBITAL CHARGES
--------------------------------
  0 Mns       :     6.510514  s :     6.510514
      pz      :     3.990888  p :    11.876797
      px      :     3.942853
      py      :     3.943056
      dz2     :     0.778889  d :     5.932977
      dxz     :     1.609441
      dyz     :     1.609415
      dx2y2   :     0.440599
      dxy     :     1.494632
      f0      :     0.002682  f :     0.011792
      f+1     :     0.001648
      f-1     :     0.001647
      f+2     :     0.000697
      f-2     :     0.000053
      f+3     :     0.002533
      f-3     :     0.002532
      g0      :     0.000031  g :     0.000149
      g+1     :     0.000010
      g-1     :     0.000010
      g+2     :     0.000033
      g-2     :     0.000006
      g+3     :     0.000005
      g-3     :     0.000005
      g+4     :     0.000040
      g-4     :     0.000007
  1 O s       :     3.902251  s :     3.902251
      pz      :     1.509261  p :     4.359925
      px      :     1.356854
      py      :     1.493810
      dz2     :     0.004705  d :     0.047209
      dxz     :     0.014913
      dyz     :     0.000337
      dx2y2   :     0.011625
      dxy     :     0.015629
      f0      :     0.000227  f :     0.001953
      f+1     :     0.000286
      f-1     :     0.000036
      f+2     :     0.000406
      f-2     :     0.000050
      f+3     :     0.000314
      f-3     :     0.000634
  2 C s       :     3.529637  s :     3.529637
      pz      :     0.578289  p :     2.001881
      px      :     0.859472
      py      :     0.564121
      dz2     :     0.008868  d :     0.172261
      dxz     :     0.073192
      dyz     :     0.005395
      dx2y2   :     0.010448
      dxy     :     0.074358
      f0      :     0.002202  f :     0.019107
      f+1     :     0.002978
      f-1     :     0.000393
      f+2     :     0.003847
      f-2     :     0.000576
      f+3     :     0.003209
      f-3     :     0.005903
  3 C s       :     3.745326  s :     3.745326
      pz      :     0.901584  p :     2.046916
      px      :     0.572663
      py      :     0.572669
      dz2     :     0.009135  d :     0.176056
      dxz     :     0.079715
      dyz     :     0.079720
      dx2y2   :     0.002982
      dxy     :     0.004503
      f0      :     0.005179  f :     0.018746
      f+1     :     0.006657
      f-1     :     0.006657
      f+2     :     0.000110
      f-2     :     0.000134
      f+3     :     0.000005
      f-3     :     0.000005
  4 O s       :     3.917935  s :     3.917935
      pz      :     1.350339  p :     4.363481
      px      :     1.506563
      py      :     1.506580
      dz2     :     0.014576  d :     0.044476
      dxz     :     0.015109
      dyz     :     0.015107
      dx2y2   :    -0.000159
      dxy     :    -0.000157
      f0      :     0.000516  f :     0.001930
      f+1     :     0.000707
      f-1     :     0.000707
      f+2     :     0.000000
      f-2     :     0.000000
      f+3     :    -0.000000
      f-3     :    -0.000000
  5 C s       :     3.529132  s :     3.529132
      pz      :     0.578288  p :     2.001855
      px      :     0.859457
      py      :     0.564110
      dz2     :     0.008874  d :     0.172254
      dxz     :     0.073173
      dyz     :     0.005396
      dx2y2   :     0.010455
      dxy     :     0.074357
      f0      :     0.002202  f :     0.019107
      f+1     :     0.002978
      f-1     :     0.000393
      f+2     :     0.003847
      f-2     :     0.000576
      f+3     :     0.003209
      f-3     :     0.005902
  6 O s       :     3.902218  s :     3.902218
      pz      :     1.509254  p :     4.359915
      px      :     1.356850
      py      :     1.493811
      dz2     :     0.004706  d :     0.047214
      dxz     :     0.014914
      dyz     :     0.000338
      dx2y2   :     0.011628
      dxy     :     0.015629
      f0      :     0.000227  f :     0.001953
      f+1     :     0.000286
      f-1     :     0.000036
      f+2     :     0.000406
      f-2     :     0.000050
      f+3     :     0.000314
      f-3     :     0.000634
  7 C s       :     3.530712  s :     3.530712
      pz      :     0.578312  p :     2.002471
      px      :     0.564112
      py      :     0.860047
      dz2     :     0.008897  d :     0.172288
      dxz     :     0.005403
      dyz     :     0.073158
      dx2y2   :     0.010481
      dxy     :     0.074349
      f0      :     0.002200  f :     0.019108
      f+1     :     0.000392
      f-1     :     0.002982
      f+2     :     0.003845
      f-2     :     0.000578
      f+3     :     0.005901
      f-3     :     0.003209
  8 O s       :     3.902294  s :     3.902294
      pz      :     1.509267  p :     4.359929
      px      :     1.493800
      py      :     1.356861
      dz2     :     0.004707  d :     0.047203
      dxz     :     0.000340
      dyz     :     0.014913
      dx2y2   :     0.011615
      dxy     :     0.015628
      f0      :     0.000226  f :     0.001953
      f+1     :     0.000036
      f-1     :     0.000287
      f+2     :     0.000406
      f-2     :     0.000050
      f+3     :     0.000634
      f-3     :     0.000314
  9 C s       :     3.530526  s :     3.530526
      pz      :     0.578321  p :     2.002442
      px      :     0.564119
      py      :     0.860003
      dz2     :     0.008911  d :     0.172272
      dxz     :     0.005406
      dyz     :     0.073110
      dx2y2   :     0.010496
      dxy     :     0.074349
      f0      :     0.002200  f :     0.019107
      f+1     :     0.000392
      f-1     :     0.002983
      f+2     :     0.003845
      f-2     :     0.000579
      f+3     :     0.005900
      f-3     :     0.003209
 10 O s       :     3.902292  s :     3.902292
      pz      :     1.509251  p :     4.359924
      px      :     1.493801
      py      :     1.356872
      dz2     :     0.004708  d :     0.047205
      dxz     :     0.000341
      dyz     :     0.014913
      dx2y2   :     0.011617
      dxy     :     0.015627
      f0      :     0.000226  f :     0.001953
      f+1     :     0.000036
      f-1     :     0.000287
      f+2     :     0.000406
      f-2     :     0.000051
      f+3     :     0.000634
      f-3     :     0.000314
 11 H s       :     1.180610  s :     1.180610
      pz      :    -0.002833  p :     0.031792
      px      :     0.017313
      py      :     0.017312
      dz2     :     0.000426  d :     0.000949
      dxz     :     0.000223
      dyz     :     0.000223
      dx2y2   :     0.000051
      dxy     :     0.000027


                     *******************************
                     * LOEWDIN POPULATION ANALYSIS *
                     *******************************

----------------------
LOEWDIN ATOMIC CHARGES
----------------------
   0 Mn:   -0.551698
   1 O :    0.142837
   2 C :   -0.050538
   3 C :   -0.014964
   4 O :    0.132971
   5 C :   -0.050531
   6 O :    0.142840
   7 C :   -0.050576
   8 O :    0.142812
   9 C :   -0.050558
  10 O :    0.142818
  11 H :    0.064588

-------------------------------
LOEWDIN REDUCED ORBITAL CHARGES
-------------------------------
  0 Mns       :     5.989702  s :     5.989702
      pz      :     4.361064  p :    13.018026
      px      :     4.328475
      py      :     4.328488
      dz2     :     0.988091  d :     6.492758
      dxz     :     1.559997
      dyz     :     1.559987
      dx2y2   :     0.899628
      dxy     :     1.485054
      f0      :     0.011825  f :     0.050619
      f+1     :     0.006692
      f-1     :     0.006688
      f+2     :     0.002543
      f-2     :     0.000072
      f+3     :     0.011401
      f-3     :     0.011398
      g0      :     0.000165  g :     0.000593
      g+1     :     0.000029
      g-1     :     0.000029
      g+2     :     0.000129
      g-2     :     0.000004
      g+3     :     0.000014
      g-3     :     0.000014
      g+4     :     0.000200
      g-4     :     0.000011
  1 O s       :     3.380806  s :     3.380806
      pz      :     1.367833  p :     4.297422
      px      :     1.589931
      py      :     1.339658
      dz2     :     0.025036  d :     0.173242
      dxz     :     0.039670
      dyz     :     0.000948
      dx2y2   :     0.077600
      dxy     :     0.029988
      f0      :     0.000510  f :     0.005692
      f+1     :     0.001145
      f-1     :     0.000056
      f+2     :     0.000919
      f-2     :     0.000082
      f+3     :     0.001959
      f-3     :     0.001021
  2 C s       :     2.908430  s :     2.908430
      pz      :     0.575175  p :     2.190760
      px      :     1.066571
      py      :     0.549014
      dz2     :     0.093398  d :     0.859208
      dxz     :     0.280573
      dyz     :     0.016311
      dx2y2   :     0.203279
      dxy     :     0.265647
      f0      :     0.010013  f :     0.092140
      f+1     :     0.014952
      f-1     :     0.001525
      f+2     :     0.018302
      f-2     :     0.002592
      f+3     :     0.017935
      f-3     :     0.026822
  3 C s       :     2.912987  s :     2.912987
      pz      :     1.074704  p :     2.181283
      px      :     0.553283
      py      :     0.553296
      dz2     :     0.263651  d :     0.829994
      dxz     :     0.268317
      dyz     :     0.268313
      dx2y2   :     0.019835
      dxy     :     0.009878
      f0      :     0.029478  f :     0.090700
      f+1     :     0.030248
      f-1     :     0.030249
      f+2     :     0.000156
      f-2     :     0.000529
      f+3     :     0.000020
      f-3     :     0.000020
  4 O s       :     3.386126  s :     3.386126
      pz      :     1.596225  p :     4.300964
      px      :     1.352362
      py      :     1.352378
      dz2     :     0.109235  d :     0.174339
      dxz     :     0.032515
      dyz     :     0.032518
      dx2y2   :     0.000050
      dxy     :     0.000020
      f0      :     0.003318  f :     0.005600
      f+1     :     0.001141
      f-1     :     0.001141
      f+2     :     0.000000
      f-2     :     0.000001
      f+3     :     0.000000
      f-3     :     0.000000
  5 C s       :     2.908431  s :     2.908431
      pz      :     0.575184  p :     2.190757
      px      :     1.066561
      py      :     0.549011
      dz2     :     0.093406  d :     0.859204
      dxz     :     0.280563
      dyz     :     0.016315
      dx2y2   :     0.203276
      dxy     :     0.265643
      f0      :     0.010012  f :     0.092140
      f+1     :     0.014954
      f-1     :     0.001525
      f+2     :     0.018301
      f-2     :     0.002593
      f+3     :     0.017934
      f-3     :     0.026821
  6 O s       :     3.380806  s :     3.380806
      pz      :     1.367834  p :     4.297419
      px      :     1.589927
      py      :     1.339658
      dz2     :     0.025034  d :     0.173242
      dxz     :     0.039674
      dyz     :     0.000949
      dx2y2   :     0.077598
      dxy     :     0.029987
      f0      :     0.000510  f :     0.005692
      f+1     :     0.001145
      f-1     :     0.000056
      f+2     :     0.000920
      f-2     :     0.000082
      f+3     :     0.001958
      f-3     :     0.001021
  7 C s       :     2.908424  s :     2.908424
      pz      :     0.575284  p :     2.190779
      px      :     0.549014
      py      :     1.066481
      dz2     :     0.093423  d :     0.859231
      dxz     :     0.016333
      dyz     :     0.280581
      dx2y2   :     0.203275
      dxy     :     0.265619
      f0      :     0.010005  f :     0.092142
      f+1     :     0.001523
      f-1     :     0.014969
      f+2     :     0.018297
      f-2     :     0.002602
      f+3     :     0.026814
      f-3     :     0.017933
  8 O s       :     3.380806  s :     3.380806
      pz      :     1.367899  p :     4.297441
      px      :     1.339649
      py      :     1.589893
      dz2     :     0.025026  d :     0.173249
      dxz     :     0.000953
      dyz     :     0.039708
      dx2y2   :     0.077579
      dxy     :     0.029983
      f0      :     0.000510  f :     0.005692
      f+1     :     0.000056
      f-1     :     0.001144
      f+2     :     0.000920
      f-2     :     0.000083
      f+3     :     0.001021
      f-3     :     0.001958
  9 C s       :     2.908428  s :     2.908428
      pz      :     0.575307  p :     2.190774
      px      :     0.549014
      py      :     1.066454
      dz2     :     0.093441  d :     0.859215
      dxz     :     0.016344
      dyz     :     0.280557
      dx2y2   :     0.203269
      dxy     :     0.265605
      f0      :     0.010002  f :     0.092142
      f+1     :     0.001522
      f-1     :     0.014974
      f+2     :     0.018296
      f-2     :     0.002605
      f+3     :     0.026811
      f-3     :     0.017931
 10 O s       :     3.380806  s :     3.380806
      pz      :     1.367902  p :     4.297436
      px      :     1.339650
      py      :     1.589883
      dz2     :     0.025023  d :     0.173248
      dxz     :     0.000954
      dyz     :     0.039716
      dx2y2   :     0.077573
      dxy     :     0.029981
      f0      :     0.000510  f :     0.005692
      f+1     :     0.000056
      f-1     :     0.001144
      f+2     :     0.000921
      f-2     :     0.000083
      f+3     :     0.001021
      f-3     :     0.001958
 11 H s       :     0.718256  s :     0.718256
      pz      :     0.082622  p :     0.204564
      px      :     0.060955
      py      :     0.060987
      dz2     :     0.004656  d :     0.012592
      dxz     :     0.003707
      dyz     :     0.003707
      dx2y2   :     0.000272
      dxy     :     0.000250


                      *****************************
                      * MAYER POPULATION ANALYSIS *
                      *****************************

  NA   - Mulliken gross atomic population
  ZA   - Total nuclear charge
  QA   - Mulliken gross atomic charge
  VA   - Mayer's total valence
  BVA  - Mayer's bonded valence
  FA   - Mayer's free valence

  ATOM       NA         ZA         QA         VA         BVA        FA
  0 Mn    24.3322    25.0000     0.6678     4.1242     4.1242    -0.0000
  1 O      8.3113     8.0000    -0.3113     2.2053     2.2053     0.0000
  2 C      5.7229     6.0000     0.2771     3.1243     3.1243    -0.0000
  3 C      5.9870     6.0000     0.0130     2.9828     2.9828    -0.0000
  4 O      8.3278     8.0000    -0.3278     2.1622     2.1622     0.0000
  5 C      5.7223     6.0000     0.2777     3.1251     3.1251    -0.0000
  6 O      8.3113     8.0000    -0.3113     2.2053     2.2053    -0.0000
  7 C      5.7246     6.0000     0.2754     3.1260     3.1260    -0.0000
  8 O      8.3114     8.0000    -0.3114     2.2054     2.2054    -0.0000
  9 C      5.7243     6.0000     0.2757     3.1260     3.1260    -0.0000
 10 O      8.3114     8.0000    -0.3114     2.2054     2.2054     0.0000
 11 H      1.2134     1.0000    -0.2134     1.0397     1.0397     0.0000

  Mayer bond orders larger than 0.100000
B(  0-Mn,  2-C ) :   0.6785 B(  0-Mn,  3-C ) :   0.6463 B(  0-Mn,  5-C ) :   0.6790 
B(  0-Mn,  7-C ) :   0.6792 B(  0-Mn,  9-C ) :   0.6792 B(  0-Mn, 11-H ) :   0.6929 
B(  1-O ,  2-C ) :   2.1760 B(  3-C ,  4-O ) :   2.1356 B(  5-C ,  6-O ) :   2.1760 
B(  7-C ,  8-O ) :   2.1760 B(  9-C , 10-O ) :   2.1760 

-------
TIMINGS
-------

Total SCF time: 0 days 0 hours 0 min 17 sec 

Total time                  ....      17.165 sec
Sum of individual times     ....      16.830 sec  ( 98.0%)

Fock matrix formation       ....      15.078 sec  ( 87.8%)
  XC integration            ....       1.739 sec  ( 11.5% of F)
    Basis function eval.    ....       0.299 sec  ( 17.2% of XC)
    Density eval.           ....       0.393 sec  ( 22.6% of XC)
    XC-Functional eval.     ....       0.036 sec  (  2.0% of XC)
    XC-Potential eval.      ....       0.562 sec  ( 32.3% of XC)
Diagonalization             ....       0.595 sec  (  3.5%)
Density matrix formation    ....       0.034 sec  (  0.2%)
Population analysis         ....       0.036 sec  (  0.2%)
Initial guess               ....       0.245 sec  (  1.4%)
Orbital Transformation      ....       0.000 sec  (  0.0%)
Orbital Orthonormalization  ....       0.000 sec  (  0.0%)
DIIS solution               ....       0.332 sec  (  1.9%)
Grid generation             ....       0.510 sec  (  3.0%)


           ************************************************************
           *        Program running with 24 parallel MPI-processes    *
           *              working on a common directory               *
           ************************************************************

------------------------------------------------------------------------------
                                ORCA  MP2 
------------------------------------------------------------------------------

Freezing NCore=30 chemical core electrons

-------------
RI-MP2 ENERGY
-------------
Dimension of the basis                    ...  469
Memory devoted to MP2                     ... 5000 MB   
Data format for buffers                   ... DOUBLE
Compression type for matrix containers    ... UNCOMPRESSED
Scaling for aa/bb pairs                   ...   4.000e-01
Scaling for ab pairs                      ...   4.700e-01
Overall scaling of the MP2 energy         ...   1.000e+00
Calculating two index integrals           ... done (    0.013 sec)
Cholesky decomposition of V**-1           ... done (    0.123 sec)

-----------------
RI-TRANSFORMATION (AUX index driven)
-----------------

Dimension of the orbital-basis         ... 469
Dimension of the aux-basis             ... 1184
Transformation of internal/external MOs...   15-  47 to   48- 468
Number Format for Storage              ... Double (8 Byte)
Integral mode                          ... Direct

First Phase: integral generation and transformation of MO indices
  Aux angular momentum 0               ... done (    0.028 sec)
  Aux angular momentum 1               ... done (    0.054 sec)
  Aux angular momentum 2               ... done (    0.076 sec)
  Aux angular momentum 3               ... done (    0.065 sec)
  Aux angular momentum 4               ... done (    0.042 sec)
  Aux angular momentum 5               ... done (    0.049 sec)
  Aux angular momentum 6               ... done (    0.066 sec)
Closing buffer VIA ( 0.12 GB; CompressionRatio= 1.00)
  Phase 1 completed in     0.464 sec
Second Phase: sorting and transformation of aux index

IA-Transformation
Memory available                       ... 4973 MB 
Max. # MO pairs treated in a batch     ... 2    
# of internal orbitals                 ... 33
# batches for internal orbitals        ... 1
Closing buffer IAV ( 0.01 GB; CompressionRatio= 1.00)
(ia|v) transformation done in     0.094 sec

  Phase 2 completed in     0.214 sec
RI-Integral transformation completed in     0.680 sec
Opening buffers                              ... done

Starting loop over batches of integrals:

Operator 0  - window                       ... ( 15- 47)x( 48-468)
Operator 0  - Memory available             ...  5000 MB
Operator 0  - Memory needed per MO         ...   3.8 MB
Operator 0  - Number of orbitals per batch ... 2
Operator 0  - Number of batches            ... 1

OPERATOR  0   PASS   0:  MOs    15 ...   16 +   17 ...   18 +   19 ...   20 +   21 ...   22
                            +   23 ...   24 +   25 ...   26 +   27 ...   28 +   29 ...   30
                            +   31 ...   32 +   33 ...   34 +   35 ...   36 +   37 ...   38
                            +   39 ...   40 +   41 ...   42 +   43 ...   44 +   45 ...   46
                            +   47 ...   47
  Reading integrals       ... ok
Time spent in pair loops =     0.043 sec
Deleting buffer (Ka|jb)[aa] ...done

-----------------------------------------------
 RI-MP2 CORRELATION ENERGY:     -1.460030024 Eh
-----------------------------------------------


-------
TIMINGS
-------

Total time                :    1.468 sec
Integral trafo            :    0.692 sec ( 47.1%)
I/O of integrals          :    0.005 sec (  0.3%)
K(i,j) Operators          :    0.025 sec (  1.7%)
T(i,j) pair energies      :    0.005 sec (  0.3%)
V-calculation             :    0.013 sec (  0.9%)
V**(-1/2)                 :    0.123 sec (  8.4%)
Gamma(ia|P)               :    0.000 sec (  0.0%)
Gamma-Trafo               :    0.000 sec (  0.0%)
D(virtual)                :    0.000 sec (  0.0%)
D(internal)               :    0.000 sec (  0.0%)
W(virtual)                :    0.000 sec (  0.0%)
W(internal)               :    0.000 sec (  0.0%)
L(virtual)                :    0.000 sec (  0.0%)
L(internal)               :    0.000 sec (  0.0%)
G(D)                      :    0.000 sec (  0.0%)
G(Z)                      :    0.000 sec (  0.0%)
Z-Vector Solution         :    0.000 sec (  0.0%)
Z-Vector Solution         :    0.000 sec (  0.0%)
3-Index Derivative 
+ Separable RIJ part      :    0.000 sec (  0.0%)
2-Index Derivative 
+ Separable RIJ part      :    0.000 sec (  0.0%)
Separable Gradient (X)    :    0.000 sec (  0.0%)


---------------------------------------
MP2 TOTAL ENERGY:    -1717.745287426 Eh
---------------------------------------


-------------------------------------------------------------------------------
                          DFT DISPERSION CORRECTION                            
                                                                               
                              DFTD3 V3.1  Rev 1                                
                          USING Becke-Johnson damping                          
-------------------------------------------------------------------------------
The DSD-BLYP/2013 functional is recognized
Active option DFTDOPT                   ...         4   

molecular C6(AA) [au] = 3256.789371 


            DFT-D V3
 parameters
 s6 scaling factor         :     0.5700 
 a1 scaling factor         :     0.0000 
 s8 scaling factor         :     0.0000 
 a2 scaling factor         :     5.4000 
 ad hoc parameters k1-k3   :    16.0000     1.3333    -4.0000 

 Edisp/kcal,au: -10.447703007419  -0.016649472757 
 E6   /kcal   : -10.447703007 
 E8   /kcal   :  -0.000000000 
 % E8         :   0.000000000 

-------------------------   ----------------
Dispersion correction           -0.016649473
-------------------------   ----------------


-------------------------   --------------------
FINAL SINGLE POINT ENERGY     -1717.761936898776
-------------------------   --------------------


                            ***************************************
                            *     ORCA property calculations      *
                            ***************************************


  WARNING: The energy has been calculated at the MP2 level but the densities
           used in the property calculations are still SCF densities
           MP2 response densities have not been calculated 
           use %mp2 Density relaxed end
           or  %mp2 Density unrelaxed end

                                    ---------------------
                                    Active property flags
                                    ---------------------
   (+) Dipole Moment


------------------------------------------------------------------------------
                       ORCA ELECTRIC PROPERTIES CALCULATION
------------------------------------------------------------------------------

Dipole Moment Calculation                       ... on
Quadrupole Moment Calculation                   ... off
Polarizability Calculation                      ... off
GBWName                                         ... MOR08_ed05.gbw
Electron density file                           ... MOR08_ed05.scfp
The origin for moment calculation is the CENTER OF MASS  = ( 0.000001, -0.000002  0.009160)

-------------
DIPOLE MOMENT
-------------
                                X             Y             Z
Electronic contribution:      0.00011      -0.00023       1.25133
Nuclear contribution   :     -0.00006       0.00014      -0.87929
                        -----------------------------------------
Total Dipole Moment    :      0.00004      -0.00010       0.37204
                        -----------------------------------------
Magnitude (a.u.)       :      0.37204
Magnitude (Debye)      :      0.94565



--------------------
Rotational spectrum 
--------------------
 
Rotational constants in cm-1:     0.030200     0.030198     0.023242 
Rotational constants in MHz :   905.379927   905.310991   696.775514 

 Dipole components along the rotational axes: 
x,y,z [a.u.] :     0.000044    -0.000096     0.372038 
x,y,z [Debye]:     0.000112    -0.000244     0.945646 

 

Timings for individual modules:

Sum of individual times         ...       20.407 sec (=   0.340 min)
GTO integral calculation        ...        0.876 sec (=   0.015 min)   4.3 %
SCF iterations                  ...       17.521 sec (=   0.292 min)  85.9 %
MP2 module                      ...        2.010 sec (=   0.033 min)   9.8 %
                             ****ORCA TERMINATED NORMALLY****
TOTAL RUN TIME: 0 days 0 hours 0 minutes 21 seconds 89 msec
