
                                 *****************
                                 * O   R   C   A *
                                 *****************

           --- An Ab Initio, DFT and Semiempirical electronic structure package ---

                  #######################################################
                  #                        -***-                        #
                  #          Department of theory and spectroscopy      #
                  #               Directorship: Frank Neese             #
                  #        Max Planck Institute fuer Kohlenforschung    #
                  #                Kaiser Wilhelm Platz 1               #
                  #                 D-45470 Muelheim/Ruhr               #
                  #                      Germany                        #
                  #                                                     #
                  #                  All rights reserved                #
                  #                        -***-                        #
                  #######################################################


                         Program Version 4.2.0 -  RELEASE  -


 With contributions from (in alphabetic order):
   Daniel Aravena         : Magnetic Suceptibility
   Michael Atanasov       : Ab Initio Ligand Field Theory (pilot matlab implementation)
   Alexander A. Auer      : GIAO ZORA, VPT2
   Ute Becker             : Parallelization
   Giovanni Bistoni       : ED, misc. LED, open-shell LED, HFLED
   Martin Brehm           : Molecular dynamics
   Dmytro Bykov           : SCF Hessian
   Vijay G. Chilkuri      : MRCI spin determinant printing, contributions to CSF-ICE
   Dipayan Datta          : RHF DLPNO-CCSD density
   Achintya Kumar Dutta   : EOM-CC, STEOM-CC
   Dmitry Ganyushin       : Spin-Orbit,Spin-Spin,Magnetic field MRCI
   Miquel Garcia          : C-PCM Hessian, Gaussian charge scheme
   Yang Guo               : DLPNO-NEVPT2, CIM, IAO-localization
   Andreas Hansen         : Spin unrestricted coupled pair/coupled cluster methods
   Benjamin Helmich-Paris : CASSCF linear response (MC-RPA)
   Lee Huntington         : MR-EOM, pCC
   Robert Izsak           : Overlap fitted RIJCOSX, COSX-SCS-MP3, EOM
   Christian Kollmar      : KDIIS, OOCD, Brueckner-CCSD(T), CCSD density
   Simone Kossmann        : Meta GGA functionals, TD-DFT gradient, OOMP2, MP2 Hessian
   Martin Krupicka        : AUTO-CI
   Lucas Lang             : DCDCAS
   Dagmar Lenk            : GEPOL surface, SMD
   Dimitrios Liakos       : Extrapolation schemes; Compound Job, initial MDCI parallelization
   Dimitrios Manganas     : Further ROCIS development; embedding schemes
   Dimitrios Pantazis     : SARC Basis sets
   Taras Petrenko         : DFT Hessian,TD-DFT gradient, ASA, ECA, R-Raman, ABS, FL, XAS/XES, NRVS
   Peter Pinski           : DLPNO-MP2, DLPNO-MP2 Gradient
   Christoph Reimann      : Effective Core Potentials
   Marius Retegan         : Local ZFS, SOC
   Christoph Riplinger    : Optimizer, TS searches, QM/MM, DLPNO-CCSD(T), (RO)-DLPNO pert. Triples
   Tobias Risthaus        : Range-separated hybrids, TD-DFT gradient, RPA, STAB
   Michael Roemelt        : Original ROCIS implementation
   Masaaki Saitow         : Open-shell DLPNO-CCSD energy and density
   Barbara Sandhoefer     : DKH picture change effects
   Avijit Sen             : IP-ROCIS
   Kantharuban Sivalingam : CASSCF convergence, NEVPT2, FIC-MRCI
   Bernardo de Souza      : ESD, SOC TD-DFT
   Georgi Stoychev        : AutoAux, RI-MP2 NMR
   Willem Van den Heuvel  : Paramagnetic NMR
   Boris Wezisla          : Elementary symmetry handling
   Frank Wennmohs         : Technical directorship


 We gratefully acknowledge several colleagues who have allowed us to
 interface, adapt or use parts of their codes:
   Stefan Grimme, W. Hujo, H. Kruse,             : VdW corrections, initial TS optimization,
                  C. Bannwarth                     DFT functionals, gCP, sTDA/sTD-DF
   Ed Valeev, F. Pavosevic, A. Kumar             : LibInt (2-el integral package), F12 methods
   Garnet Chan, S. Sharma, J. Yang, R. Olivares  : DMRG
   Ulf Ekstrom                                   : XCFun DFT Library
   Mihaly Kallay                                 : mrcc  (arbitrary order and MRCC methods)
   Andreas Klamt, Michael Diedenhofen            : otool_cosmo (COSMO solvation model)
   Jiri Pittner, Ondrej Demel                    : Mk-CCSD
   Frank Weinhold                                : gennbo (NPA and NBO analysis)
   Christopher J. Cramer and Donald G. Truhlar   : smd solvation model
   Lars Goerigk                                  : TD-DFT with DH, B97 family of functionals
   V. Asgeirsson, H. Jonsson                     : NEB implementation
   FAccTs GmbH                                   : IRC, NEB, NEB-TS, Multilevel, MM, QM/MM, CI optimization
   S Lehtola, MJT Oliveira, MAL Marques          : LibXC Library


 Your calculation uses the libint2 library for the computation of 2-el integrals
 For citations please refer to: http://libint.valeyev.net

 Your ORCA version has been built with support for libXC version: 4.2.3
 For citations please refer to: https://tddft.org/programs/libxc/

 This ORCA versions uses:
   CBLAS   interface :  Fast vector & matrix operations
   LAPACKE interface :  Fast linear algebra routines
   SCALAPACK package :  Parallel linear algebra routines


Your calculation utilizes the atom-pairwise dispersion correction
with the Becke-Johnson damping scheme (D3BJ)
Cite in your paper:
S.Grimme, S.Ehrlich, L.Goerigk, J Comput Chem, (2011), 32, 1456–1465 
S.Grimme, J.Antony, S.Ehrlich and H.Krieg, J.Chem.Phys., 132, (2010), 154104 
   

----- Orbital basis set information -----
Your calculation utilizes the basis: def2-TZVPPD
   F. Weigend and R. Ahlrichs, Phys. Chem. Chem. Phys. 7, 3297 (2005).
   D. Rappoport and F. Furche, J. Chem. Phys. 133 134105 (2010).

----- AuxC basis set information -----
Your calculation utilizes the auxiliary basis: def2-TZVPPD/C
   A. Hellweg, C. Hattig, S. Hofener and W. Klopper, Theor. Chem. Acc. 117, 587 (2007).

----- AuxJK basis set information -----
Your calculation utilizes the auxiliary basis: def2/JK
   H-Ba, Hf-Rn: F. Weigend, J. Comput. Chem. 29, 167 (2008).

================================================================================
                                        WARNINGS
                       Please study these warnings very carefully!
================================================================================


WARNING: No MP2 level density has been requested!
         To caclulate MP2 level properties use
         %mp2 Density relaxed end
         or
         %mp2 Density unrelaxed end
         Otherwise for double-hybrid DFT only the energy is correct!

WARNING: There are different parametrizations of Gershom Martin's DSD-DFs
         for use with and without D3(BJ)!
         You are using the D3(BJ) parametrized version,
         consistent with the 2013 article (S. Kozuch and J. M. L. Martin, JCC 2013, 34, 2327)

WARNING: The frozen-core approximation is turned on by default for 
         the MP2 part of double-hybrid DFT.

INFO   : the flag for use of LIBINT has been found!

================================================================================
                                       INPUT FILE
================================================================================
NAME = MOR02_bz.in
|  1> #
|  2> # MOR02_bz ri-DSD-BLYP/2013-D3BJ/Def2-TZVPPD
|  3> #
|  4> ! rijk ri-dsd-blyp/2013 d3bj def2-tzvppd def2/jk def2-tzvppd/c grid4 nofinalgrid
|  5> 
|  6> *xyz 0 1
|  7> C        1.391947    0.103893   -0.000005 
|  8> C        0.785946   -1.153510   -0.000002 
|  9> C       -0.605997   -1.257403   -0.000005 
| 10> C       -1.391947   -0.103892   -0.000002 
| 11> C       -0.785947    1.153509   -0.000006 
| 12> C        0.605998    1.257403   -0.000002 
| 13> H        2.475503    0.184769    0.000018 
| 14> H        1.397775   -2.051448    0.000027 
| 15> H       -1.077745   -2.236217    0.000018 
| 16> H       -2.475502   -0.184774    0.000031 
| 17> H       -1.397773    2.051449    0.000014 
| 18> H        1.077742    2.236219    0.000031 
| 19> *
| 20> 
| 21> %maxcore 5000
| 22> 
| 23> %pal
| 24> nprocs = 24
| 25> end
| 26> 
| 27> 
| 28>                          ****END OF INPUT****
================================================================================

                       ****************************
                       * Single Point Calculation *
                       ****************************

---------------------------------
CARTESIAN COORDINATES (ANGSTROEM)
---------------------------------
  C      1.391947    0.103893   -0.000005
  C      0.785946   -1.153510   -0.000002
  C     -0.605997   -1.257403   -0.000005
  C     -1.391947   -0.103892   -0.000002
  C     -0.785947    1.153509   -0.000006
  C      0.605998    1.257403   -0.000002
  H      2.475503    0.184769    0.000018
  H      1.397775   -2.051448    0.000027
  H     -1.077745   -2.236217    0.000018
  H     -2.475502   -0.184774    0.000031
  H     -1.397773    2.051449    0.000014
  H      1.077742    2.236219    0.000031

----------------------------
CARTESIAN COORDINATES (A.U.)
----------------------------
  NO LB      ZA    FRAG     MASS         X           Y           Z
   0 C     6.0000    0    12.011    2.630399    0.196329   -0.000009
   1 C     6.0000    0    12.011    1.485223   -2.179818   -0.000004
   2 C     6.0000    0    12.011   -1.145168   -2.376147   -0.000009
   3 C     6.0000    0    12.011   -2.630399   -0.196327   -0.000004
   4 C     6.0000    0    12.011   -1.485225    2.179816   -0.000011
   5 C     6.0000    0    12.011    1.145170    2.376147   -0.000004
   6 H     1.0000    0     1.008    4.678023    0.349163    0.000034
   7 H     1.0000    0     1.008    2.641412   -3.876675    0.000051
   8 H     1.0000    0     1.008   -2.036643   -4.225838    0.000034
   9 H     1.0000    0     1.008   -4.678021   -0.349172    0.000059
  10 H     1.0000    0     1.008   -2.641408    3.876677    0.000026
  11 H     1.0000    0     1.008    2.036637    4.225841    0.000059

--------------------------------
INTERNAL COORDINATES (ANGSTROEM)
--------------------------------
 C      0   0   0     0.000000000000     0.00000000     0.00000000
 C      1   0   0     1.395815000786     0.00000000     0.00000000
 C      2   1   0     1.395814841126   120.00015529     0.00000000
 C      3   2   1     1.395816975692   120.00016495     0.00000000
 C      4   3   2     1.395812764957   119.99968110     0.00000000
 C      1   2   3     1.395815586211   119.99969057     0.00000000
 H      1   2   3     1.086570077372   120.00018922   179.99874176
 H      2   1   3     1.086566784844   119.99903336   180.00148136
 H      3   2   1     1.086564780687   120.00072526   180.00125825
 H      4   3   2     1.086569527015   119.99981156   180.00215151
 H      5   4   3     1.086566748192   119.99922480   180.00107556
 H      6   1   2     1.086564845962   119.99935638   179.99784849

---------------------------
INTERNAL COORDINATES (A.U.)
---------------------------
 C      0   0   0     0.000000000000     0.00000000     0.00000000
 C      1   0   0     2.637708085104     0.00000000     0.00000000
 C      2   1   0     2.637707783391   120.00015529     0.00000000
 C      3   2   1     2.637711817136   120.00016495     0.00000000
 C      4   3   2     2.637703860000   119.99968110     0.00000000
 C      1   2   3     2.637709191398   119.99969057     0.00000000
 H      1   2   3     2.053319871547   120.00018922   179.99874176
 H      2   1   3     2.053313649570   119.99903336   180.00148136
 H      3   2   1     2.053309862262   120.00072526   180.00125825
 H      4   3   2     2.053318831523   119.99981156   180.00215151
 H      5   4   3     2.053313580308   119.99922480   180.00107556
 H      6   1   2     2.053309985615   119.99935638   179.99784849

---------------------
BASIS SET INFORMATION
---------------------
There are 2 groups of distinct atoms

 Group   1 Type C   : 12s6p3d1f contracted to 6s3p3d1f pattern {621111/411/111/1}
 Group   2 Type H   : 5s3p1d contracted to 3s3p1d pattern {311/111/1}

Atom   0C    basis set group =>   1
Atom   1C    basis set group =>   1
Atom   2C    basis set group =>   1
Atom   3C    basis set group =>   1
Atom   4C    basis set group =>   1
Atom   5C    basis set group =>   1
Atom   6H    basis set group =>   2
Atom   7H    basis set group =>   2
Atom   8H    basis set group =>   2
Atom   9H    basis set group =>   2
Atom  10H    basis set group =>   2
Atom  11H    basis set group =>   2
---------------------------------
AUXILIARY/C BASIS SET INFORMATION
---------------------------------
There are 2 groups of distinct atoms

 Group   1 Type C   : 9s7p6d4f1g contracted to 9s7p5d4f1g pattern {111111111/1111111/21111/1111/1}
 Group   2 Type H   : 5s4p3d1f contracted to 5s4p3d1f pattern {11111/1111/111/1}

Atom   0C    basis set group =>   1
Atom   1C    basis set group =>   1
Atom   2C    basis set group =>   1
Atom   3C    basis set group =>   1
Atom   4C    basis set group =>   1
Atom   5C    basis set group =>   1
Atom   6H    basis set group =>   2
Atom   7H    basis set group =>   2
Atom   8H    basis set group =>   2
Atom   9H    basis set group =>   2
Atom  10H    basis set group =>   2
Atom  11H    basis set group =>   2
----------------------------------
AUXILIARY/JK BASIS SET INFORMATION
----------------------------------
There are 2 groups of distinct atoms

 Group   1 Type C   : 14s10p6d2f1g contracted to 10s8p5d1f1g pattern {5111111111/31111111/21111/2/1}
 Group   2 Type H   : 4s2p2d contracted to 2s2p2d pattern {31/11/11}

Atom   0C    basis set group =>   1
Atom   1C    basis set group =>   1
Atom   2C    basis set group =>   1
Atom   3C    basis set group =>   1
Atom   4C    basis set group =>   1
Atom   5C    basis set group =>   1
Atom   6H    basis set group =>   2
Atom   7H    basis set group =>   2
Atom   8H    basis set group =>   2
Atom   9H    basis set group =>   2
Atom  10H    basis set group =>   2
Atom  11H    basis set group =>   2


           ************************************************************
           *        Program running with 24 parallel MPI-processes    *
           *              working on a common directory               *
           ************************************************************
------------------------------------------------------------------------------
                           ORCA GTO INTEGRAL CALCULATION
                           -- RI-GTO INTEGRALS CHOSEN --
------------------------------------------------------------------------------

                         BASIS SET STATISTICS AND STARTUP INFO

Gaussian basis set:
 # of primitive gaussian shells          ...  186
 # of primitive gaussian functions       ...  426
 # of contracted shells                  ...  120
 # of contracted basis functions         ...  324
 Highest angular momentum                ...    3
 Maximum contraction depth               ...    6
Auxiliary gaussian basis set:
 # of primitive gaussian shells          ...  246
 # of primitive gaussian functions       ...  702
 # of contracted shells                  ...  186
 # of contracted aux-basis functions     ...  558
 Highest angular momentum                ...    4
 Maximum contraction depth               ...    5
Ratio of auxiliary to basis functions    ...  1.72
Integral package used                  ... LIBINT
 One Electron integrals                  ... done
 Ordering auxiliary basis shells         ... done
 Integral threshhold             Thresh  ...  1.000e-10
 Primitive cut-off               TCut    ...  1.000e-11
 Pre-screening matrix                    ... done
 Shell pair data                         ... 
 Ordering of the shell pairs             ... done (   0.001 sec) 7025 of 7260 pairs
 Determination of significant pairs      ... done (   0.000 sec)
 Creation of shell pair data             ... done (   0.001 sec)
 Storage of shell pair data              ... done (   0.001 sec)
 Shell pair data done in (   0.003 sec)
 Computing two index integrals           ... done
 Cholesky decomposition of the V-matrix  ... done


Timings:
 Total evaluation time                   ...   0.238 sec (  0.004 min)
 One electron matrix time                ...   0.069 sec (  0.001 min) = 29.1%
 Schwartz matrix evaluation time         ...   0.134 sec (  0.002 min) = 56.1%
 Two index repulsion integral time       ...   0.006 sec (  0.000 min) =  2.4%
 Cholesky decomposition of V             ...   0.005 sec (  0.000 min) =  2.0%
 Three index repulsion integral time     ...   0.000 sec (  0.000 min) =  0.0%



           ************************************************************
           *        Program running with 24 parallel MPI-processes    *
           *              working on a common directory               *
           ************************************************************
-------------------------------------------------------------------------------
                                 ORCA SCF
-------------------------------------------------------------------------------

------------
SCF SETTINGS
------------
Hamiltonian:
 Density Functional     Method          .... DFT(GTOs)
 Exchange Functional    Exchange        .... B88
   X-Alpha parameter    XAlpha          ....  0.666667
   Becke's b parameter  XBeta           ....  0.004200
 Correlation Functional Correlation     .... LYP
 LDA part of GGA corr.  LDAOpt          .... VWN-5
 Gradients option       PostSCFGGA      .... off
 Hybrid DFT is turned on
   Fraction HF Exchange ScalHFX         ....  0.710000
   Scaling of DF-GGA-X  ScalDFX         ....  0.290000
   Scaling of DF-GGA-C  ScalDFC         ....  0.540000
   Scaling of DF-LDA-C  ScalLDAC        ....  0.540000
   Perturbative correction              ....  1.000000
   Density functional embedding theory  .... OFF
 RI-approximation to the Coulomb term is turned on
   Number of auxiliary basis functions  .... 558
   RI-JK (J+K treated both via RI)      .... on


General Settings:
 Integral files         IntName         .... MOR02_bz
 Hartree-Fock type      HFTyp           .... RHF
 Total Charge           Charge          ....    0
 Multiplicity           Mult            ....    1
 Number of Electrons    NEL             ....   42
 Basis Dimension        Dim             ....  324
 Nuclear Repulsion      ENuc            ....    203.2982348504 Eh

Convergence Acceleration:
 DIIS                   CNVDIIS         .... on
   Start iteration      DIISMaxIt       ....    12
   Startup error        DIISStart       ....  0.200000
   # of expansion vecs  DIISMaxEq       ....     5
   Bias factor          DIISBfac        ....   1.050
   Max. coefficient     DIISMaxC        ....  10.000
 Newton-Raphson         CNVNR           .... off
 SOSCF                  CNVSOSCF        .... on
   Start iteration      SOSCFMaxIt      ....   150
   Startup grad/error   SOSCFStart      ....  0.003300
 Level Shifting         CNVShift        .... on
   Level shift para.    LevelShift      ....    0.2500
   Turn off err/grad.   ShiftErr        ....    0.0010
 Zerner damping         CNVZerner       .... off
 Static damping         CNVDamp         .... on
   Fraction old density DampFac         ....    0.7000
   Max. Damping (<1)    DampMax         ....    0.9800
   Min. Damping (>=0)   DampMin         ....    0.0000
   Turn off err/grad.   DampErr         ....    0.1000
 Fernandez-Rico         CNVRico         .... off

SCF Procedure:
 Maximum # iterations   MaxIter         ....   125
 SCF integral mode      SCFMode         .... Direct
   Integral package                     .... LIBINT
 Reset frequency        DirectResetFreq ....    20
 Integral Threshold     Thresh          ....  1.000e-10 Eh
 Primitive CutOff       TCut            ....  1.000e-11 Eh

Convergence Tolerance:
 Convergence Check Mode ConvCheckMode   .... Total+1el-Energy
 Convergence forced     ConvForced      .... 0
 Energy Change          TolE            ....  1.000e-06 Eh
 1-El. energy change                    ....  1.000e-03 Eh
 Orbital Gradient       TolG            ....  5.000e-05
 Orbital Rotation angle TolX            ....  5.000e-05
 DIIS Error             TolErr          ....  1.000e-06


Diagonalization of the overlap matrix:
Smallest eigenvalue                        ... 6.317e-07
Time for diagonalization                   ...    0.014 sec
Threshold for overlap eigenvalues          ... 1.000e-08
Number of eigenvalues below threshold      ... 0
Time for construction of square roots      ...    0.013 sec
Total time needed                          ...    0.027 sec

-------------------
DFT GRID GENERATION
-------------------

General Integration Accuracy     IntAcc      ...  4.670
Radial Grid Type                 RadialGrid  ... Gauss-Chebyshev
Angular Grid (max. acc.)         AngularGrid ... Lebedev-302
Angular grid pruning method      GridPruning ... 3 (G Style)
Weight generation scheme         WeightScheme... Becke
Basis function cutoff            BFCut       ...    1.0000e-10
Integration weight cutoff        WCut        ...    1.0000e-14
Grids for H and He will be reduced by one unit

# of grid points (after initial pruning)     ...  57636 (   0.0 sec)
# of grid points (after weights+screening)   ...  53399 (   0.0 sec)
nearest neighbour list constructed           ...    0.0 sec
Grid point re-assignment to atoms done       ...    0.0 sec
Grid point division into batches done        ...    0.2 sec
Reduced shell lists constructed in    0.2 sec

Total number of grid points                  ...    53399
Total number of batches                      ...      838
Average number of points per batch           ...       63
Average number of grid points per atom       ...     4450
Average number of shells per batch           ...    95.08 (79.24%)
Average number of basis functions per batch  ...   266.97 (82.40%)
Average number of large shells per batch     ...    82.03 (86.27%)
Average number of large basis fcns per batch ...   228.47 (85.58%)
Average number of aux-shells per batch       ...    95.08 (51.12%)
Average number of aux functions per batch    ...   266.97 (47.84%)
Maximum spatial batch extension              ...   3.14,  3.03, 16.53 au
Average spatial batch extension              ...   0.06,  0.07,  0.10 au

Time for grid setup =    0.330 sec

------------------------------
INITIAL GUESS: MODEL POTENTIAL
------------------------------
Loading Hartree-Fock densities                     ... done
Calculating cut-offs                               ... done
Setting up the integral package                    ... done
Initializing the effective Hamiltonian             ... done
Starting the Coulomb interaction                   ... done (   0.0 sec)
Reading the grid                                   ... done
Mapping shells                                     ... done
Starting the XC term evaluation                    ... done (   0.1 sec)
  promolecular density results
     # of electrons  =     41.996931039
     EX              =    -32.604339392
     EC              =     -0.161844375
     EX+EC           =    -32.766183768
Transforming the Hamiltonian                       ... done (   0.0 sec)
Diagonalizing the Hamiltonian                      ... done (   0.0 sec)
Back transforming the eigenvectors                 ... done (   0.0 sec)
Now organizing SCF variables                       ... done
                      ------------------
                      INITIAL GUESS DONE (   0.5 sec)
                      ------------------
--------------
SCF ITERATIONS
--------------
ITER       Energy         Delta-E        Max-DP      RMS-DP      [F,P]     Damp
  0   -231.3440544641   0.000000000000 0.13996927  0.00212816  0.1571578 0.7000
  1   -231.2649310802   0.079123383864 0.11496208  0.00186781  0.1413841 0.7000
                               ***Turning on DIIS***
  2   -231.3061423094  -0.041211229157 0.25179638  0.00424703  0.0830958 0.0000
  3   -231.4900178419  -0.183875532531 0.04923403  0.00114067  0.0871127 0.0000
  4   -231.5330776898  -0.043059847906 0.01415013  0.00047188  0.0324572 0.0000
  5   -231.5385054370  -0.005427747139 0.00546442  0.00018342  0.0132709 0.0000
  6   -231.5394751831  -0.000969746193 0.00417886  0.00009190  0.0042434 0.0000
                      *** Initiating the SOSCF procedure ***
                           *** Shutting down DIIS ***
                      *** Re-Reading the Fockian *** 
                      *** Removing any level shift *** 
ITER      Energy       Delta-E        Grad      Rot      Max-DP    RMS-DP
  7   -231.53958269  -0.0001075065  0.000352  0.000352  0.002076  0.000040
  8   -231.53959211  -0.0000094206  0.000135  0.000226  0.005263  0.000074
  9   -231.53959273  -0.0000006212  0.000068  0.000053  0.001983  0.000026
                 **** Energy Check signals convergence ****
              ***Rediagonalizing the Fockian in SOSCF/NRSCF***

               *****************************************************
               *                     SUCCESS                       *
               *           SCF CONVERGED AFTER  10 CYCLES          *
               *****************************************************


----------------
TOTAL SCF ENERGY
----------------

Total Energy       :         -231.53959287 Eh           -6300.51263 eV

Components:
Nuclear Repulsion  :          203.29823485 Eh            5532.02621 eV
Electronic Energy  :         -434.83782772 Eh          -11832.53885 eV
One Electron Energy:         -713.47288456 Eh          -19414.58421 eV
Two Electron Energy:          278.63505683 Eh            7582.04536 eV

Virial components:
Potential Energy   :         -462.23465785 Eh          -12578.04450 eV
Kinetic Energy     :          230.69506497 Eh            6277.53186 eV
Virial Ratio       :            2.00366080


DFT components:
N(Alpha)           :       20.999992793714 electrons
N(Beta)            :       20.999992793714 electrons
N(Total)           :       41.999985587428 electrons
E(X)               :       -9.651907261919 Eh       
E(C)               :       -0.748962719035 Eh       
E(XC)              :      -10.400869980954 Eh       
DFET-embed. en.    :        0.000000000000 Eh       

---------------
SCF CONVERGENCE
---------------

  Last Energy change         ...   -1.4294e-07  Tolerance :   1.0000e-06
  Last MAX-Density change    ...    9.9845e-03  Tolerance :   1.0000e-05
  Last RMS-Density change    ...    1.7452e-04  Tolerance :   1.0000e-06
  Last Orbital Gradient      ...    1.9641e-05  Tolerance :   5.0000e-05
  Last Orbital Rotation      ...    9.7379e-06  Tolerance :   5.0000e-05

             **** THE GBW FILE WAS UPDATED (MOR02_bz.gbw) ****
             **** DENSITY FILE WAS UPDATED (MOR02_bz.scfp) ****
             **** ENERGY FILE WAS UPDATED (MOR02_bz.en.tmp) ****
             **** THE GBW FILE WAS UPDATED (MOR02_bz.gbw) ****
             **** DENSITY FILE WAS UPDATED (MOR02_bz.scfp) ****
----------------
ORBITAL ENERGIES
----------------

  NO   OCC          E(Eh)            E(eV) 
   0   2.0000     -10.860180      -295.5205 
   1   2.0000     -10.859717      -295.5079 
   2   2.0000     -10.859717      -295.5079 
   3   2.0000     -10.858713      -295.4806 
   4   2.0000     -10.858713      -295.4806 
   5   2.0000     -10.858224      -295.4673 
   6   2.0000      -1.046153       -28.4673 
   7   2.0000      -0.920640       -25.0519 
   8   2.0000      -0.920638       -25.0518 
   9   2.0000      -0.747305       -20.3352 
  10   2.0000      -0.747303       -20.3352 
  11   2.0000      -0.645661       -17.5693 
  12   2.0000      -0.580783       -15.8039 
  13   2.0000      -0.560965       -15.2646 
  14   2.0000      -0.531231       -14.4555 
  15   2.0000      -0.531229       -14.4555 
  16   2.0000      -0.458358       -12.4726 
  17   2.0000      -0.444057       -12.0834 
  18   2.0000      -0.444054       -12.0833 
  19   2.0000      -0.312069        -8.4918 
  20   2.0000      -0.312068        -8.4918 
  21   0.0000       0.050095         1.3631 
  22   0.0000       0.066378         1.8062 
  23   0.0000       0.066389         1.8065 
  24   0.0000       0.066925         1.8211 
  25   0.0000       0.066929         1.8212 
  26   0.0000       0.087786         2.3888 
  27   0.0000       0.087804         2.3893 
  28   0.0000       0.120035         3.2663 
  29   0.0000       0.121691         3.3114 
  30   0.0000       0.168648         4.5892 
  31   0.0000       0.181344         4.9346 
  32   0.0000       0.181374         4.9354 
  33   0.0000       0.182338         4.9617 
  34   0.0000       0.184324         5.0157 
  35   0.0000       0.184348         5.0164 
  36   0.0000       0.219093         5.9618 
  37   0.0000       0.219129         5.9628 
  38   0.0000       0.231195         6.2911 
  39   0.0000       0.252635         6.8745 
  40   0.0000       0.252669         6.8755 
  41   0.0000       0.260463         7.0875 
  42   0.0000       0.269874         7.3436 
  43   0.0000       0.269885         7.3440 
  44   0.0000       0.273525         7.4430 
  45   0.0000       0.283720         7.7204 
  46   0.0000       0.283794         7.7224 
  47   0.0000       0.307087         8.3563 
  48   0.0000       0.307107         8.3568 
  49   0.0000       0.310235         8.4419 
  50   0.0000       0.310272         8.4429 
  51   0.0000       0.327600         8.9145 
  52   0.0000       0.338491         9.2108 
  53   0.0000       0.358204         9.7472 
  54   0.0000       0.361256         9.8303 
  55   0.0000       0.362097         9.8532 
  56   0.0000       0.381075        10.3696 
  57   0.0000       0.381099        10.3702 
  58   0.0000       0.398655        10.8480 
  59   0.0000       0.398721        10.8497 
  60   0.0000       0.402499        10.9526 
  61   0.0000       0.402522        10.9532 
  62   0.0000       0.404706        11.0126 
  63   0.0000       0.411283        11.1916 
  64   0.0000       0.429292        11.6816 
  65   0.0000       0.429406        11.6847 
  66   0.0000       0.442209        12.0331 
  67   0.0000       0.442268        12.0347 
  68   0.0000       0.445631        12.1262 
  69   0.0000       0.460553        12.5323 
  70   0.0000       0.460581        12.5330 
  71   0.0000       0.471756        12.8371 
  72   0.0000       0.495367        13.4796 
  73   0.0000       0.499035        13.5794 
  74   0.0000       0.509784        13.8719 
  75   0.0000       0.510126        13.8812 
  76   0.0000       0.533801        14.5255 
  77   0.0000       0.533892        14.5279 
  78   0.0000       0.544442        14.8150 
  79   0.0000       0.544461        14.8155 
  80   0.0000       0.546454        14.8698 
  81   0.0000       0.546492        14.8708 
  82   0.0000       0.573675        15.6105 
  83   0.0000       0.574455        15.6317 
  84   0.0000       0.606792        16.5117 
  85   0.0000       0.609203        16.5773 
  86   0.0000       0.609330        16.5807 
  87   0.0000       0.617109        16.7924 
  88   0.0000       0.633126        17.2282 
  89   0.0000       0.639045        17.3893 
  90   0.0000       0.639140        17.3919 
  91   0.0000       0.648893        17.6573 
  92   0.0000       0.666943        18.1484 
  93   0.0000       0.721624        19.6364 
  94   0.0000       0.721659        19.6373 
  95   0.0000       0.745386        20.2830 
  96   0.0000       0.752126        20.4664 
  97   0.0000       0.757917        20.6240 
  98   0.0000       0.763160        20.7666 
  99   0.0000       0.763224        20.7684 
 100   0.0000       0.766736        20.8639 
 101   0.0000       0.766756        20.8645 
 102   0.0000       0.789969        21.4962 
 103   0.0000       0.789995        21.4969 
 104   0.0000       0.795624        21.6500 
 105   0.0000       0.822416        22.3791 
 106   0.0000       0.823192        22.4002 
 107   0.0000       0.823329        22.4039 
 108   0.0000       0.844694        22.9853 
 109   0.0000       0.845176        22.9984 
 110   0.0000       0.850099        23.1324 
 111   0.0000       0.854172        23.2432 
 112   0.0000       0.856825        23.3154 
 113   0.0000       0.857416        23.3315 
 114   0.0000       0.897462        24.4212 
 115   0.0000       0.917141        24.9567 
 116   0.0000       0.917467        24.9656 
 117   0.0000       0.986775        26.8515 
 118   0.0000       1.008008        27.4293 
 119   0.0000       1.008348        27.4385 
 120   0.0000       1.008361        27.4389 
 121   0.0000       1.022347        27.8195 
 122   0.0000       1.022383        27.8205 
 123   0.0000       1.047374        28.5005 
 124   0.0000       1.063438        28.9376 
 125   0.0000       1.072744        29.1908 
 126   0.0000       1.073131        29.2014 
 127   0.0000       1.098277        29.8856 
 128   0.0000       1.113107        30.2892 
 129   0.0000       1.175030        31.9742 
 130   0.0000       1.175054        31.9748 
 131   0.0000       1.212702        32.9993 
 132   0.0000       1.247935        33.9580 
 133   0.0000       1.303770        35.4774 
 134   0.0000       1.303774        35.4775 
 135   0.0000       1.320586        35.9350 
 136   0.0000       1.320611        35.9356 
 137   0.0000       1.351751        36.7830 
 138   0.0000       1.352292        36.7977 
 139   0.0000       1.369377        37.2626 
 140   0.0000       1.369436        37.2643 
 141   0.0000       1.437025        39.1034 
 142   0.0000       1.437034        39.1037 
 143   0.0000       1.444302        39.3014 
 144   0.0000       1.489600        40.5341 
 145   0.0000       1.541448        41.9449 
 146   0.0000       1.541650        41.9504 
 147   0.0000       1.579093        42.9693 
 148   0.0000       1.579365        42.9767 
 149   0.0000       1.585724        43.1497 
 150   0.0000       1.585736        43.1501 
 151   0.0000       1.629929        44.3526 
 152   0.0000       1.649997        44.8987 
 153   0.0000       1.650115        44.9019 
 154   0.0000       1.685747        45.8715 
 155   0.0000       1.713475        46.6260 
 156   0.0000       1.713519        46.6272 
 157   0.0000       1.747790        47.5598 
 158   0.0000       1.798037        48.9271 
 159   0.0000       1.804553        49.1044 
 160   0.0000       1.866495        50.7899 
 161   0.0000       1.866773        50.7975 
 162   0.0000       1.893207        51.5168 
 163   0.0000       1.924420        52.3661 
 164   0.0000       1.924436        52.3666 
 165   0.0000       1.925491        52.3953 
 166   0.0000       1.925530        52.3963 
 167   0.0000       1.981308        53.9141 
 168   0.0000       1.981322        53.9145 
 169   0.0000       2.024283        55.0835 
 170   0.0000       2.058647        56.0186 
 171   0.0000       2.058658        56.0189 
 172   0.0000       2.084609        56.7251 
 173   0.0000       2.084639        56.7259 
 174   0.0000       2.104476        57.2657 
 175   0.0000       2.139738        58.2252 
 176   0.0000       2.255794        61.3833 
 177   0.0000       2.255814        61.3838 
 178   0.0000       2.296825        62.4998 
 179   0.0000       2.296871        62.5010 
 180   0.0000       2.297988        62.5314 
 181   0.0000       2.342333        63.7381 
 182   0.0000       2.409120        65.5555 
 183   0.0000       2.536974        69.0346 
 184   0.0000       2.572023        69.9883 
 185   0.0000       2.574493        70.0555 
 186   0.0000       2.574526        70.0564 
 187   0.0000       2.594916        70.6113 
 188   0.0000       2.594928        70.6116 
 189   0.0000       2.694031        73.3083 
 190   0.0000       2.694067        73.3093 
 191   0.0000       2.745897        74.7197 
 192   0.0000       2.837607        77.2152 
 193   0.0000       2.872131        78.1547 
 194   0.0000       2.896696        78.8231 
 195   0.0000       2.896705        78.8234 
 196   0.0000       2.927036        79.6487 
 197   0.0000       2.939419        79.9857 
 198   0.0000       2.939422        79.9857 
 199   0.0000       3.000816        81.6564 
 200   0.0000       3.000822        81.6565 
 201   0.0000       3.058910        83.2372 
 202   0.0000       3.058929        83.2377 
 203   0.0000       3.091559        84.1256 
 204   0.0000       3.134473        85.2934 
 205   0.0000       3.134488        85.2937 
 206   0.0000       3.232790        87.9687 
 207   0.0000       3.232801        87.9690 
 208   0.0000       3.237476        88.0962 
 209   0.0000       3.241613        88.2088 
 210   0.0000       3.265403        88.8561 
 211   0.0000       3.313451        90.1636 
 212   0.0000       3.313455        90.1637 
 213   0.0000       3.333182        90.7005 
 214   0.0000       3.333247        90.7023 
 215   0.0000       3.355382        91.3046 
 216   0.0000       3.366201        91.5990 
 217   0.0000       3.366235        91.5999 
 218   0.0000       3.375393        91.8491 
 219   0.0000       3.375402        91.8494 
 220   0.0000       3.383774        92.0772 
 221   0.0000       3.446593        93.7866 
 222   0.0000       3.446666        93.7885 
 223   0.0000       3.524879        95.9168 
 224   0.0000       3.524886        95.9170 
 225   0.0000       3.577690        97.3539 
 226   0.0000       3.582453        97.4835 
 227   0.0000       3.585672        97.5711 
 228   0.0000       3.585748        97.5732 
 229   0.0000       3.593963        97.7967 
 230   0.0000       3.610887        98.2572 
 231   0.0000       3.610917        98.2580 
 232   0.0000       3.633935        98.8844 
 233   0.0000       3.633942        98.8846 
 234   0.0000       3.664911        99.7273 
 235   0.0000       3.672418        99.9316 
 236   0.0000       3.707578       100.8883 
 237   0.0000       3.707748       100.8930 
 238   0.0000       3.737842       101.7118 
 239   0.0000       3.737851       101.7121 
 240   0.0000       3.826629       104.1279 
 241   0.0000       3.841794       104.5405 
 242   0.0000       3.848354       104.7190 
 243   0.0000       3.888130       105.8014 
 244   0.0000       3.888135       105.8015 
 245   0.0000       3.909778       106.3905 
 246   0.0000       3.957736       107.6955 
 247   0.0000       3.973145       108.1148 
 248   0.0000       3.975607       108.1818 
 249   0.0000       3.975615       108.1820 
 250   0.0000       3.993488       108.6683 
 251   0.0000       4.042060       109.9900 
 252   0.0000       4.055865       110.3657 
 253   0.0000       4.055875       110.3660 
 254   0.0000       4.071890       110.8017 
 255   0.0000       4.071911       110.8023 
 256   0.0000       4.091830       111.3443 
 257   0.0000       4.151460       112.9670 
 258   0.0000       4.151465       112.9671 
 259   0.0000       4.222264       114.8936 
 260   0.0000       4.222288       114.8943 
 261   0.0000       4.224867       114.9645 
 262   0.0000       4.224871       114.9646 
 263   0.0000       4.346489       118.2740 
 264   0.0000       4.346493       118.2741 
 265   0.0000       4.408216       119.9537 
 266   0.0000       4.421005       120.3017 
 267   0.0000       4.436569       120.7252 
 268   0.0000       4.449477       121.0764 
 269   0.0000       4.462243       121.4238 
 270   0.0000       4.462254       121.4241 
 271   0.0000       4.483385       121.9991 
 272   0.0000       4.483406       121.9997 
 273   0.0000       4.500316       122.4598 
 274   0.0000       4.500327       122.4601 
 275   0.0000       4.539089       123.5149 
 276   0.0000       4.539101       123.5152 
 277   0.0000       4.585090       124.7666 
 278   0.0000       4.585113       124.7673 
 279   0.0000       4.618169       125.6668 
 280   0.0000       4.721096       128.4676 
 281   0.0000       4.721130       128.4685 
 282   0.0000       4.815483       131.0359 
 283   0.0000       4.831059       131.4598 
 284   0.0000       4.922571       133.9500 
 285   0.0000       4.922592       133.9505 
 286   0.0000       4.955123       134.8358 
 287   0.0000       4.976187       135.4089 
 288   0.0000       4.976204       135.4094 
 289   0.0000       5.004364       136.1757 
 290   0.0000       5.004390       136.1764 
 291   0.0000       5.022966       136.6818 
 292   0.0000       5.023005       136.6829 
 293   0.0000       5.054563       137.5416 
 294   0.0000       5.103233       138.8660 
 295   0.0000       5.109756       139.0435 
 296   0.0000       5.224201       142.1577 
 297   0.0000       5.224219       142.1582 
 298   0.0000       5.259847       143.1277 
 299   0.0000       5.441439       148.0691 
 300   0.0000       5.441442       148.0692 
 301   0.0000       5.475274       148.9898 
 302   0.0000       5.475286       148.9901 
 303   0.0000       5.587340       152.0393 
 304   0.0000       5.606837       152.5698 
 305   0.0000       5.606844       152.5700 
 306   0.0000       5.666351       154.1892 
 307   0.0000       5.768338       156.9644 
 308   0.0000       5.861787       159.5073 
 309   0.0000       5.861825       159.5084 
 310   0.0000       5.942934       161.7155 
 311   0.0000       6.021458       163.8522 
 312   0.0000       6.021477       163.8527 
 313   0.0000       6.113240       166.3497 
 314   0.0000       6.408976       174.3971 
 315   0.0000       6.408994       174.3976 
 316   0.0000       6.536224       177.8597 
 317   0.0000       7.114008       193.5820 
 318   0.0000      23.677326       644.2928 
 319   0.0000      23.911549       650.6663 
 320   0.0000      23.911565       650.6668 
 321   0.0000      24.040027       654.1624 
 322   0.0000      24.040035       654.1626 
 323   0.0000      24.874253       676.8628 

                    ********************************
                    * MULLIKEN POPULATION ANALYSIS *
                    ********************************

-----------------------
MULLIKEN ATOMIC CHARGES
-----------------------
   0 C :    0.023905
   1 C :    0.023621
   2 C :    0.024763
   3 C :    0.023366
   4 C :    0.024868
   5 C :    0.024174
   6 H :   -0.024231
   7 H :   -0.024078
   8 H :   -0.024056
   9 H :   -0.024248
  10 H :   -0.024077
  11 H :   -0.024007
Sum of atomic charges:    0.0000000

--------------------------------
MULLIKEN REDUCED ORBITAL CHARGES
--------------------------------
  0 C s       :     3.320184  s :     3.320184
      pz      :     0.933536  p :     2.584465
      px      :     0.849233
      py      :     0.801697
      dz2     :    -0.000505  d :     0.063227
      dxz     :     0.005117
      dyz     :     0.038869
      dx2y2   :     0.013612
      dxy     :     0.006134
      f0      :     0.001457  f :     0.008218
      f+1     :     0.000787
      f-1     :     0.000717
      f+2     :     0.000338
      f-2     :     0.001101
      f+3     :     0.001564
      f-3     :     0.002254
  1 C s       :     3.319670  s :     3.319670
      pz      :     0.933366  p :     2.585130
      px      :     0.816960
      py      :     0.834804
      dz2     :    -0.000484  d :     0.063360
      dxz     :     0.028262
      dyz     :     0.015701
      dx2y2   :     0.006980
      dxy     :     0.012901
      f0      :     0.001457  f :     0.008219
      f+1     :     0.000739
      f-1     :     0.000765
      f+2     :     0.001012
      f-2     :     0.000428
      f+3     :     0.001564
      f-3     :     0.002254
  2 C s       :     3.319313  s :     3.319313
      pz      :     0.933290  p :     2.584553
      px      :     0.810577
      py      :     0.840686
      dz2     :    -0.000490  d :     0.063154
      dxz     :     0.032623
      dyz     :     0.011359
      dx2y2   :     0.008817
      dxy     :     0.010845
      f0      :     0.001456  f :     0.008218
      f+1     :     0.000730
      f-1     :     0.000774
      f+2     :     0.000809
      f-2     :     0.000630
      f+3     :     0.001564
      f-3     :     0.002254
  3 C s       :     3.320260  s :     3.320260
      pz      :     0.933536  p :     2.584907
      px      :     0.849846
      py      :     0.801524
      dz2     :    -0.000495  d :     0.063248
      dxz     :     0.005117
      dyz     :     0.038869
      dx2y2   :     0.013695
      dxy     :     0.006063
      f0      :     0.001457  f :     0.008218
      f+1     :     0.000787
      f-1     :     0.000717
      f+2     :     0.000338
      f-2     :     0.001101
      f+3     :     0.001564
      f-3     :     0.002254
  4 C s       :     3.319470  s :     3.319470
      pz      :     0.933366  p :     2.584102
      px      :     0.816515
      py      :     0.834221
      dz2     :    -0.000482  d :     0.063342
      dxz     :     0.028262
      dyz     :     0.015701
      dx2y2   :     0.006998
      dxy     :     0.012863
      f0      :     0.001457  f :     0.008219
      f+1     :     0.000739
      f-1     :     0.000765
      f+2     :     0.001012
      f-2     :     0.000428
      f+3     :     0.001564
      f-3     :     0.002254
  5 C s       :     3.319519  s :     3.319519
      pz      :     0.933290  p :     2.584801
      px      :     0.810404
      py      :     0.841107
      dz2     :    -0.000486  d :     0.063288
      dxz     :     0.032623
      dyz     :     0.011359
      dx2y2   :     0.008946
      dxy     :     0.010846
      f0      :     0.001456  f :     0.008218
      f+1     :     0.000730
      f-1     :     0.000774
      f+2     :     0.000809
      f-2     :     0.000630
      f+3     :     0.001564
      f-3     :     0.002254
  6 H s       :     1.007462  s :     1.007462
      pz      :     0.019181  p :     0.014799
      px      :    -0.006255
      py      :     0.001873
      dz2     :     0.000140  d :     0.001970
      dxz     :     0.000563
      dyz     :     0.000015
      dx2y2   :     0.000426
      dxy     :     0.000826
  7 H s       :     1.007370  s :     1.007370
      pz      :     0.019142  p :     0.014738
      px      :    -0.000684
      py      :    -0.003719
      dz2     :     0.000140  d :     0.001969
      dxz     :     0.000187
      dyz     :     0.000390
      dx2y2   :     0.000779
      dxy     :     0.000472
  8 H s       :     1.007358  s :     1.007358
      pz      :     0.019135  p :     0.014728
      px      :     0.000372
      py      :    -0.004778
      dz2     :     0.000140  d :     0.001970
      dxz     :     0.000116
      dyz     :     0.000461
      dx2y2   :     0.000673
      dxy     :     0.000579
  9 H s       :     1.007466  s :     1.007466
      pz      :     0.019181  p :     0.014812
      px      :    -0.006243
      py      :     0.001874
      dz2     :     0.000140  d :     0.001970
      dxz     :     0.000563
      dyz     :     0.000015
      dx2y2   :     0.000426
      dxy     :     0.000826
 10 H s       :     1.007404  s :     1.007404
      pz      :     0.019142  p :     0.014704
      px      :    -0.000718
      py      :    -0.003719
      dz2     :     0.000140  d :     0.001969
      dxz     :     0.000187
      dyz     :     0.000390
      dx2y2   :     0.000779
      dxy     :     0.000472
 11 H s       :     1.007326  s :     1.007326
      pz      :     0.019135  p :     0.014712
      px      :     0.000345
      py      :    -0.004768
      dz2     :     0.000140  d :     0.001970
      dxz     :     0.000116
      dyz     :     0.000461
      dx2y2   :     0.000673
      dxy     :     0.000579


                     *******************************
                     * LOEWDIN POPULATION ANALYSIS *
                     *******************************

----------------------
LOEWDIN ATOMIC CHARGES
----------------------
   0 C :    0.003320
   1 C :    0.003322
   2 C :    0.003326
   3 C :    0.003320
   4 C :    0.003323
   5 C :    0.003326
   6 H :   -0.003322
   7 H :   -0.003322
   8 H :   -0.003325
   9 H :   -0.003322
  10 H :   -0.003322
  11 H :   -0.003325

-------------------------------
LOEWDIN REDUCED ORBITAL CHARGES
-------------------------------
  0 C s       :     2.649684  s :     2.649684
      pz      :     0.722249  p :     2.600873
      px      :     0.921038
      py      :     0.957586
      dz2     :     0.060727  d :     0.703011
      dxz     :     0.036953
      dyz     :     0.144177
      dx2y2   :     0.280586
      dxy     :     0.180569
      f0      :     0.002458  f :     0.043111
      f+1     :     0.003277
      f-1     :     0.003826
      f+2     :     0.002122
      f-2     :     0.007051
      f+3     :     0.009541
      f-3     :     0.014836
  1 C s       :     2.649683  s :     2.649683
      pz      :     0.722243  p :     2.600871
      px      :     0.946075
      py      :     0.932554
      dz2     :     0.060727  d :     0.703012
      dxz     :     0.110403
      dyz     :     0.070729
      dx2y2   :     0.192269
      dxy     :     0.268884
      f0      :     0.002458  f :     0.043111
      f+1     :     0.003653
      f-1     :     0.003450
      f+2     :     0.006474
      f-2     :     0.002699
      f+3     :     0.009540
      f-3     :     0.014836
  2 C s       :     2.649683  s :     2.649683
      pz      :     0.722243  p :     2.600869
      px      :     0.950825
      py      :     0.927801
      dz2     :     0.060727  d :     0.703011
      dxz     :     0.124340
      dyz     :     0.056789
      dx2y2   :     0.218873
      dxy     :     0.242282
      f0      :     0.002458  f :     0.043111
      f+1     :     0.003725
      f-1     :     0.003379
      f+2     :     0.005163
      f-2     :     0.004010
      f+3     :     0.009541
      f-3     :     0.014836
  3 C s       :     2.649684  s :     2.649684
      pz      :     0.722249  p :     2.600873
      px      :     0.921038
      py      :     0.957586
      dz2     :     0.060727  d :     0.703011
      dxz     :     0.036953
      dyz     :     0.144177
      dx2y2   :     0.280586
      dxy     :     0.180569
      f0      :     0.002458  f :     0.043111
      f+1     :     0.003277
      f-1     :     0.003826
      f+2     :     0.002122
      f-2     :     0.007051
      f+3     :     0.009541
      f-3     :     0.014836
  4 C s       :     2.649684  s :     2.649684
      pz      :     0.722243  p :     2.600871
      px      :     0.946074
      py      :     0.932554
      dz2     :     0.060727  d :     0.703012
      dxz     :     0.110403
      dyz     :     0.070729
      dx2y2   :     0.192269
      dxy     :     0.268883
      f0      :     0.002458  f :     0.043111
      f+1     :     0.003653
      f-1     :     0.003450
      f+2     :     0.006474
      f-2     :     0.002699
      f+3     :     0.009540
      f-3     :     0.014836
  5 C s       :     2.649683  s :     2.649683
      pz      :     0.722244  p :     2.600869
      px      :     0.950824
      py      :     0.927802
      dz2     :     0.060727  d :     0.703010
      dxz     :     0.124340
      dyz     :     0.056789
      dx2y2   :     0.218874
      dxy     :     0.242281
      f0      :     0.002458  f :     0.043111
      f+1     :     0.003725
      f-1     :     0.003379
      f+2     :     0.005163
      f-2     :     0.004010
      f+3     :     0.009541
      f-3     :     0.014836
  6 H s       :     0.712563  s :     0.712563
      pz      :     0.077118  p :     0.262901
      px      :     0.122263
      py      :     0.063520
      dz2     :     0.002637  d :     0.027857
      dxz     :     0.007806
      dyz     :     0.000069
      dx2y2   :     0.008393
      dxy     :     0.008952
  7 H s       :     0.712562  s :     0.712562
      pz      :     0.077118  p :     0.262903
      px      :     0.082025
      py      :     0.103760
      dz2     :     0.002637  d :     0.027857
      dxz     :     0.002506
      dyz     :     0.005369
      dx2y2   :     0.008887
      dxy     :     0.008458
  8 H s       :     0.712563  s :     0.712563
      pz      :     0.077119  p :     0.262904
      px      :     0.074389
      py      :     0.111396
      dz2     :     0.002637  d :     0.027857
      dxz     :     0.001500
      dyz     :     0.006375
      dx2y2   :     0.008738
      dxy     :     0.008607
  9 H s       :     0.712563  s :     0.712563
      pz      :     0.077118  p :     0.262902
      px      :     0.122263
      py      :     0.063520
      dz2     :     0.002637  d :     0.027857
      dxz     :     0.007806
      dyz     :     0.000069
      dx2y2   :     0.008393
      dxy     :     0.008952
 10 H s       :     0.712562  s :     0.712562
      pz      :     0.077118  p :     0.262903
      px      :     0.082025
      py      :     0.103760
      dz2     :     0.002637  d :     0.027857
      dxz     :     0.002506
      dyz     :     0.005369
      dx2y2   :     0.008887
      dxy     :     0.008458
 11 H s       :     0.712563  s :     0.712563
      pz      :     0.077119  p :     0.262904
      px      :     0.074389
      py      :     0.111396
      dz2     :     0.002637  d :     0.027857
      dxz     :     0.001500
      dyz     :     0.006375
      dx2y2   :     0.008738
      dxy     :     0.008607


                      *****************************
                      * MAYER POPULATION ANALYSIS *
                      *****************************

  NA   - Mulliken gross atomic population
  ZA   - Total nuclear charge
  QA   - Mulliken gross atomic charge
  VA   - Mayer's total valence
  BVA  - Mayer's bonded valence
  FA   - Mayer's free valence

  ATOM       NA         ZA         QA         VA         BVA        FA
  0 C      5.9761     6.0000     0.0239     3.3028     3.3028     0.0000
  1 C      5.9764     6.0000     0.0236     3.3045     3.3045     0.0000
  2 C      5.9752     6.0000     0.0248     3.3039     3.3039    -0.0000
  3 C      5.9766     6.0000     0.0234     3.3041     3.3041    -0.0000
  4 C      5.9751     6.0000     0.0249     3.3029     3.3029     0.0000
  5 C      5.9758     6.0000     0.0242     3.3044     3.3044    -0.0000
  6 H      1.0242     1.0000    -0.0242     0.9053     0.9053     0.0000
  7 H      1.0241     1.0000    -0.0241     0.9052     0.9052     0.0000
  8 H      1.0241     1.0000    -0.0241     0.9050     0.9050    -0.0000
  9 H      1.0242     1.0000    -0.0242     0.9053     0.9053    -0.0000
 10 H      1.0241     1.0000    -0.0241     0.9052     0.9052     0.0000
 11 H      1.0240     1.0000    -0.0240     0.9050     0.9050    -0.0000

  Mayer bond orders larger than 0.100000
B(  0-C ,  1-C ) :   1.2417 B(  0-C ,  5-C ) :   1.2410 B(  0-C ,  6-H ) :   1.0950 
B(  1-C ,  2-C ) :   1.2420 B(  1-C ,  7-H ) :   1.0945 B(  2-C ,  3-C ) :   1.2418 
B(  2-C ,  8-H ) :   1.0946 B(  3-C ,  4-C ) :   1.2408 B(  3-C ,  9-H ) :   1.0950 
B(  4-C ,  5-C ) :   1.2424 B(  4-C , 10-H ) :   1.0948 B(  5-C , 11-H ) :   1.0947 


-------
TIMINGS
-------

Total SCF time: 0 days 0 hours 0 min 4 sec 

Total time                  ....       4.808 sec
Sum of individual times     ....       4.604 sec  ( 95.8%)

Fock matrix formation       ....       3.825 sec  ( 79.6%)
  XC integration            ....       0.851 sec  ( 22.2% of F)
    Basis function eval.    ....       0.153 sec  ( 18.0% of XC)
    Density eval.           ....       0.175 sec  ( 20.6% of XC)
    XC-Functional eval.     ....       0.021 sec  (  2.5% of XC)
    XC-Potential eval.      ....       0.328 sec  ( 38.6% of XC)
Diagonalization             ....       0.139 sec  (  2.9%)
Density matrix formation    ....       0.017 sec  (  0.4%)
Population analysis         ....       0.016 sec  (  0.3%)
Initial guess               ....       0.169 sec  (  3.5%)
Orbital Transformation      ....       0.000 sec  (  0.0%)
Orbital Orthonormalization  ....       0.000 sec  (  0.0%)
DIIS solution               ....       0.069 sec  (  1.4%)
SOSCF solution              ....       0.039 sec  (  0.8%)
Grid generation             ....       0.330 sec  (  6.9%)


           ************************************************************
           *        Program running with 24 parallel MPI-processes    *
           *              working on a common directory               *
           ************************************************************

------------------------------------------------------------------------------
                                ORCA  MP2 
------------------------------------------------------------------------------

Freezing NCore=12 chemical core electrons

-------------
RI-MP2 ENERGY
-------------
Dimension of the basis                    ...  324
Memory devoted to MP2                     ... 5000 MB   
Data format for buffers                   ... DOUBLE
Compression type for matrix containers    ... UNCOMPRESSED
Scaling for aa/bb pairs                   ...   4.000e-01
Scaling for ab pairs                      ...   4.700e-01
Overall scaling of the MP2 energy         ...   1.000e+00
Calculating two index integrals           ... done (    0.006 sec)
Cholesky decomposition of V**-1           ... done (    0.082 sec)

-----------------
RI-TRANSFORMATION (AUX index driven)
-----------------

Dimension of the orbital-basis         ... 324
Dimension of the aux-basis             ... 786
Transformation of internal/external MOs...    6-  20 to   21- 323
Number Format for Storage              ... Double (8 Byte)
Integral mode                          ... Direct

First Phase: integral generation and transformation of MO indices
  Aux angular momentum 0               ... done (    0.010 sec)
  Aux angular momentum 1               ... done (    0.016 sec)
  Aux angular momentum 2               ... done (    0.021 sec)
  Aux angular momentum 3               ... done (    0.026 sec)
  Aux angular momentum 4               ... done (    0.016 sec)
Closing buffer VIA ( 0.03 GB; CompressionRatio= 1.00)
  Phase 1 completed in     0.191 sec
Second Phase: sorting and transformation of aux index

IA-Transformation
Memory available                       ... 4987 MB 
Max. # MO pairs treated in a batch     ... 1    
# of internal orbitals                 ... 15
# batches for internal orbitals        ... 1
Closing buffer IAV ( 0.00 GB; CompressionRatio= 1.00)
(ia|v) transformation done in     0.019 sec

  Phase 2 completed in     0.046 sec
RI-Integral transformation completed in     0.239 sec
Opening buffers                              ... done

Starting loop over batches of integrals:

Operator 0  - window                       ... (  6- 20)x( 21-323)
Operator 0  - Memory available             ...  5000 MB
Operator 0  - Memory needed per MO         ...   1.8 MB
Operator 0  - Number of orbitals per batch ... 1
Operator 0  - Number of batches            ... 1

OPERATOR  0   PASS   0:  MOs     6 ...    6 +    7 ...    7 +    8 ...    8 +    9 ...    9
                            +   10 ...   10 +   11 ...   11 +   12 ...   12 +   13 ...   13
                            +   14 ...   14 +   15 ...   15 +   16 ...   16 +   17 ...   17
                            +   18 ...   18 +   19 ...   19 +   20 ...   20
  Reading integrals       ... ok
Time spent in pair loops =     0.011 sec
Deleting buffer (Ka|jb)[aa] ...done

-----------------------------------------------
 RI-MP2 CORRELATION ENERGY:     -0.483537561 Eh
-----------------------------------------------


-------
TIMINGS
-------

Total time                :    0.409 sec
Integral trafo            :    0.247 sec ( 60.4%)
I/O of integrals          :    0.002 sec (  0.4%)
K(i,j) Operators          :    0.003 sec (  0.7%)
T(i,j) pair energies      :    0.001 sec (  0.2%)
V-calculation             :    0.006 sec (  1.5%)
V**(-1/2)                 :    0.082 sec ( 20.1%)
Gamma(ia|P)               :    0.000 sec (  0.0%)
Gamma-Trafo               :    0.000 sec (  0.0%)
D(virtual)                :    0.000 sec (  0.0%)
D(internal)               :    0.000 sec (  0.0%)
W(virtual)                :    0.000 sec (  0.0%)
W(internal)               :    0.000 sec (  0.0%)
L(virtual)                :    0.000 sec (  0.0%)
L(internal)               :    0.000 sec (  0.0%)
G(D)                      :    0.000 sec (  0.0%)
G(Z)                      :    0.000 sec (  0.0%)
Z-Vector Solution         :    0.000 sec (  0.0%)
Z-Vector Solution         :    0.000 sec (  0.0%)
3-Index Derivative 
+ Separable RIJ part      :    0.000 sec (  0.0%)
2-Index Derivative 
+ Separable RIJ part      :    0.000 sec (  0.0%)
Separable Gradient (X)    :    0.000 sec (  0.0%)


---------------------------------------
MP2 TOTAL ENERGY:     -232.023130435 Eh
---------------------------------------


-------------------------------------------------------------------------------
                          DFT DISPERSION CORRECTION                            
                                                                               
                              DFTD3 V3.1  Rev 1                                
                          USING Becke-Johnson damping                          
-------------------------------------------------------------------------------
The DSD-BLYP/2013 functional is recognized
Active option DFTDOPT                   ...         4   

molecular C6(AA) [au] = 1659.763720 


            DFT-D V3
 parameters
 s6 scaling factor         :     0.5700 
 a1 scaling factor         :     0.0000 
 s8 scaling factor         :     0.0000 
 a2 scaling factor         :     5.4000 
 ad hoc parameters k1-k3   :    16.0000     1.3333    -4.0000 

 Edisp/kcal,au: -7.125873745076  -0.011355801433 
 E6   /kcal   :  -7.125873745 
 E8   /kcal   :  -0.000000000 
 % E8         :   0.000000000 

-------------------------   ----------------
Dispersion correction           -0.011355801
-------------------------   ----------------


-------------------------   --------------------
FINAL SINGLE POINT ENERGY      -232.034486236928
-------------------------   --------------------


                            ***************************************
                            *     ORCA property calculations      *
                            ***************************************


  WARNING: The energy has been calculated at the MP2 level but the densities
           used in the property calculations are still SCF densities
           MP2 response densities have not been calculated 
           use %mp2 Density relaxed end
           or  %mp2 Density unrelaxed end

                                    ---------------------
                                    Active property flags
                                    ---------------------
   (+) Dipole Moment


------------------------------------------------------------------------------
                       ORCA ELECTRIC PROPERTIES CALCULATION
------------------------------------------------------------------------------

Dipole Moment Calculation                       ... on
Quadrupole Moment Calculation                   ... off
Polarizability Calculation                      ... off
GBWName                                         ... MOR02_bz.gbw
Electron density file                           ... MOR02_bz.scfp
The origin for moment calculation is the CENTER OF MASS  = ( 0.000000, -0.000000 -0.000003)

-------------
DIPOLE MOMENT
-------------
                                X             Y             Z
Electronic contribution:     -0.00000       0.00000      -0.00010
Nuclear contribution   :      0.00000      -0.00000       0.00014
                        -----------------------------------------
Total Dipole Moment    :     -0.00000      -0.00000       0.00004
                        -----------------------------------------
Magnitude (a.u.)       :      0.00004
Magnitude (Debye)      :      0.00011



--------------------
Rotational spectrum 
--------------------
 
Rotational constants in cm-1:     0.189759     0.189757     0.094879 
Rotational constants in MHz :  5688.823776  5688.770067  2844.398461 

 Dipole components along the rotational axes: 
x,y,z [a.u.] :    -0.000000     0.000000     0.000043 
x,y,z [Debye]:    -0.000001     0.000001     0.000109 

 

Timings for individual modules:

Sum of individual times         ...        6.793 sec (=   0.113 min)
GTO integral calculation        ...        0.596 sec (=   0.010 min)   8.8 %
SCF iterations                  ...        5.136 sec (=   0.086 min)  75.6 %
MP2 module                      ...        1.061 sec (=   0.018 min)  15.6 %
                             ****ORCA TERMINATED NORMALLY****
TOTAL RUN TIME: 0 days 0 hours 0 minutes 7 seconds 355 msec
