
                                 *****************
                                 * O   R   C   A *
                                 *****************

           --- An Ab Initio, DFT and Semiempirical electronic structure package ---

                  #######################################################
                  #                        -***-                        #
                  #          Department of theory and spectroscopy      #
                  #               Directorship: Frank Neese             #
                  #        Max Planck Institute fuer Kohlenforschung    #
                  #                Kaiser Wilhelm Platz 1               #
                  #                 D-45470 Muelheim/Ruhr               #
                  #                      Germany                        #
                  #                                                     #
                  #                  All rights reserved                #
                  #                        -***-                        #
                  #######################################################


                         Program Version 4.2.0 -  RELEASE  -


 With contributions from (in alphabetic order):
   Daniel Aravena         : Magnetic Suceptibility
   Michael Atanasov       : Ab Initio Ligand Field Theory (pilot matlab implementation)
   Alexander A. Auer      : GIAO ZORA, VPT2
   Ute Becker             : Parallelization
   Giovanni Bistoni       : ED, misc. LED, open-shell LED, HFLED
   Martin Brehm           : Molecular dynamics
   Dmytro Bykov           : SCF Hessian
   Vijay G. Chilkuri      : MRCI spin determinant printing, contributions to CSF-ICE
   Dipayan Datta          : RHF DLPNO-CCSD density
   Achintya Kumar Dutta   : EOM-CC, STEOM-CC
   Dmitry Ganyushin       : Spin-Orbit,Spin-Spin,Magnetic field MRCI
   Miquel Garcia          : C-PCM Hessian, Gaussian charge scheme
   Yang Guo               : DLPNO-NEVPT2, CIM, IAO-localization
   Andreas Hansen         : Spin unrestricted coupled pair/coupled cluster methods
   Benjamin Helmich-Paris : CASSCF linear response (MC-RPA)
   Lee Huntington         : MR-EOM, pCC
   Robert Izsak           : Overlap fitted RIJCOSX, COSX-SCS-MP3, EOM
   Christian Kollmar      : KDIIS, OOCD, Brueckner-CCSD(T), CCSD density
   Simone Kossmann        : Meta GGA functionals, TD-DFT gradient, OOMP2, MP2 Hessian
   Martin Krupicka        : AUTO-CI
   Lucas Lang             : DCDCAS
   Dagmar Lenk            : GEPOL surface, SMD
   Dimitrios Liakos       : Extrapolation schemes; Compound Job, initial MDCI parallelization
   Dimitrios Manganas     : Further ROCIS development; embedding schemes
   Dimitrios Pantazis     : SARC Basis sets
   Taras Petrenko         : DFT Hessian,TD-DFT gradient, ASA, ECA, R-Raman, ABS, FL, XAS/XES, NRVS
   Peter Pinski           : DLPNO-MP2, DLPNO-MP2 Gradient
   Christoph Reimann      : Effective Core Potentials
   Marius Retegan         : Local ZFS, SOC
   Christoph Riplinger    : Optimizer, TS searches, QM/MM, DLPNO-CCSD(T), (RO)-DLPNO pert. Triples
   Tobias Risthaus        : Range-separated hybrids, TD-DFT gradient, RPA, STAB
   Michael Roemelt        : Original ROCIS implementation
   Masaaki Saitow         : Open-shell DLPNO-CCSD energy and density
   Barbara Sandhoefer     : DKH picture change effects
   Avijit Sen             : IP-ROCIS
   Kantharuban Sivalingam : CASSCF convergence, NEVPT2, FIC-MRCI
   Bernardo de Souza      : ESD, SOC TD-DFT
   Georgi Stoychev        : AutoAux, RI-MP2 NMR
   Willem Van den Heuvel  : Paramagnetic NMR
   Boris Wezisla          : Elementary symmetry handling
   Frank Wennmohs         : Technical directorship


 We gratefully acknowledge several colleagues who have allowed us to
 interface, adapt or use parts of their codes:
   Stefan Grimme, W. Hujo, H. Kruse,             : VdW corrections, initial TS optimization,
                  C. Bannwarth                     DFT functionals, gCP, sTDA/sTD-DF
   Ed Valeev, F. Pavosevic, A. Kumar             : LibInt (2-el integral package), F12 methods
   Garnet Chan, S. Sharma, J. Yang, R. Olivares  : DMRG
   Ulf Ekstrom                                   : XCFun DFT Library
   Mihaly Kallay                                 : mrcc  (arbitrary order and MRCC methods)
   Andreas Klamt, Michael Diedenhofen            : otool_cosmo (COSMO solvation model)
   Jiri Pittner, Ondrej Demel                    : Mk-CCSD
   Frank Weinhold                                : gennbo (NPA and NBO analysis)
   Christopher J. Cramer and Donald G. Truhlar   : smd solvation model
   Lars Goerigk                                  : TD-DFT with DH, B97 family of functionals
   V. Asgeirsson, H. Jonsson                     : NEB implementation
   FAccTs GmbH                                   : IRC, NEB, NEB-TS, Multilevel, MM, QM/MM, CI optimization
   S Lehtola, MJT Oliveira, MAL Marques          : LibXC Library


 Your calculation uses the libint2 library for the computation of 2-el integrals
 For citations please refer to: http://libint.valeyev.net

 Your ORCA version has been built with support for libXC version: 4.2.3
 For citations please refer to: https://tddft.org/programs/libxc/

 This ORCA versions uses:
   CBLAS   interface :  Fast vector & matrix operations
   LAPACKE interface :  Fast linear algebra routines
   SCALAPACK package :  Parallel linear algebra routines


Your calculation utilizes the atom-pairwise dispersion correction
with the Becke-Johnson damping scheme (D3BJ)
Cite in your paper:
S.Grimme, S.Ehrlich, L.Goerigk, J Comput Chem, (2011), 32, 1456–1465 
S.Grimme, J.Antony, S.Ehrlich and H.Krieg, J.Chem.Phys., 132, (2010), 154104 
   

----- Orbital basis set information -----
Your calculation utilizes the basis: def2-TZVPPD
   F. Weigend and R. Ahlrichs, Phys. Chem. Chem. Phys. 7, 3297 (2005).
   D. Rappoport and F. Furche, J. Chem. Phys. 133 134105 (2010).

----- AuxC basis set information -----
Your calculation utilizes the auxiliary basis: def2-TZVPPD/C
   A. Hellweg, C. Hattig, S. Hofener and W. Klopper, Theor. Chem. Acc. 117, 587 (2007).

----- AuxJK basis set information -----
Your calculation utilizes the auxiliary basis: def2/JK
   H-Ba, Hf-Rn: F. Weigend, J. Comput. Chem. 29, 167 (2008).

cite the ECPs for W  [Def2-ECP] as follows:
Ce-Yb(ecp-28): M. Dolg, H. Stoll, H.Preuss, J. Chem. Phys., 1989, 90, 1730-1734.
Y-Cd(ecp-28), Hf-Hg(ecp-46): D. Andrae,U. Haeussermann, M. Dolg, H. Stoll, H. Preuss, Theor. Chim. Acta, 1990, 77, 123-141.
In-Sb(ecp-28), Tl-Bi(ecp-46): B. Metz, H. Stoll, M. Dolg, J. Chem. Phys., 2000, 113, 2563-2569.
Te-Xe(ecp-28), Po-Rn(ecp-46): K. A. Peterson, D. Figgen, E. Goll, H. Stoll, M. Dolg, J. Chem. Phys., 2003, 119, 11113-11123.
Rb(ecp-28), Cs(ecp-46): T. Leininger, A. Nicklass, W. Kuechle, H. Stoll, M. Dolg, A. Bergner, Chem. Phys. Lett., 1996, 255, 274-280.
Sr(ecp-28), Ba(ecp-46): M. Kaupp, P. V. Schleyer, H. Stoll and H. Preuss, J. Chem. Phys., 1991, 94, 1360-1366.
La(ecp-46): M. Dolg, H. Stoll, A. Savin, H. Preuss, Theor. Chim. Acta, 1989, 75, 173-194.
Lu(ecp-28): X. Cao, M. Dolg, J. Chem. Phys., 2001, 115, 7348-7355.

ECP parameters for W  [Def2-ECP] have been obtained from:
TURBOMOLE (7.0.2)

================================================================================
                                        WARNINGS
                       Please study these warnings very carefully!
================================================================================


WARNING: No MP2 level density has been requested!
         To caclulate MP2 level properties use
         %mp2 Density relaxed end
         or
         %mp2 Density unrelaxed end
         Otherwise for double-hybrid DFT only the energy is correct!

WARNING: There are different parametrizations of Gershom Martin's DSD-DFs
         for use with and without D3(BJ)!
         You are using the D3(BJ) parametrized version,
         consistent with the 2013 article (S. Kozuch and J. M. L. Martin, JCC 2013, 34, 2327)

WARNING: The frozen-core approximation is turned on by default for 
         the MP2 part of double-hybrid DFT.

INFO   : the flag for use of LIBINT has been found!

================================================================================
                                       INPUT FILE
================================================================================
NAME = MOR09_ed07.in
|  1> #
|  2> # MOR09_ed07 ri-DSD-BLYP/2013-D3BJ/Def2-TZVPPD
|  3> #
|  4> ! rijk ri-dsd-blyp/2013 d3bj def2-tzvppd def2/jk def2-tzvppd/c grid4 nofinalgrid
|  5> 
|  6> *xyz 0 1
|  7> W        0.102077    0.091078   -0.092267 
|  8> C        0.117393   -1.847063   -0.698289 
|  9> O        0.106421   -2.944423   -1.101491 
| 10> C        0.053830    0.623127   -1.953542 
| 11> O        0.062184    0.954188   -3.084324 
| 12> C       -0.079789    2.065684    0.368043 
| 13> O       -0.241835    3.206144    0.563164 
| 14> P       -2.374272   -0.093775    0.152024 
| 15> C       -2.924700   -0.636961    1.860300 
| 16> H       -4.020662   -0.654132    1.869520 
| 17> C       -3.301587    1.526034   -0.042070 
| 18> H       -2.720709    2.174283    0.626552 
| 19> C       -3.158465   -1.412689   -0.926528 
| 20> H       -2.602719   -2.298136   -0.589541 
| 21> C        3.533012   -1.160075   -0.926747 
| 22> P        2.541683   -0.047968    0.198665 
| 23> H        3.436930   -0.493420    2.480788 
| 24> H        3.117150   -2.146572   -0.686664 
| 25> C        3.597094    1.476716    0.423185 
| 26> H        4.630625    1.133957    0.560412 
| 27> C       -3.162167    2.103519   -1.458162 
| 28> H       -3.455722    3.159421   -1.453162 
| 29> H       -3.815975    1.580772   -2.162650 
| 30> H       -2.136423    2.033109   -1.825887 
| 31> C       -4.764402    1.570333    0.422322 
| 32> H       -5.415801    0.983387   -0.229568 
| 33> H       -5.116762    2.608723    0.390691 
| 34> H       -4.893747    1.210688    1.447022 
| 35> C       -4.655036   -1.682881   -0.716884 
| 36> H       -4.925909   -1.790522    0.337405 
| 37> H       -4.929224   -2.613829   -1.227923 
| 38> H       -5.265149   -0.883893   -1.147063 
| 39> C       -2.846467   -1.236186   -2.419424 
| 40> H       -3.119249   -2.151958   -2.956758 
| 41> H       -1.787229   -1.039228   -2.589757 
| 42> H       -3.419310   -0.412085   -2.852792 
| 43> C       -2.418211   -2.050160    2.179041 
| 44> H       -2.879973   -2.804800    1.536232 
| 45> H       -2.649558   -2.306479    3.219697 
| 46> H       -1.332968   -2.120913    2.045449 
| 47> C       -2.447309    0.375917    2.910548 
| 48> H       -1.357998    0.484909    2.881372 
| 49> H       -2.729985    0.039964    3.915237 
| 50> H       -2.881675    1.366975    2.750689 
| 51> C        5.039293   -1.175311   -0.637409 
| 52> H        5.257150   -1.324613    0.425881 
| 53> H        5.510398   -0.237807   -0.951034 
| 54> H        5.518847   -1.987312   -1.196567 
| 55> C        3.236493   -0.904929   -2.411567 
| 56> H        3.640990    0.053418   -2.749243 
| 57> C        1.267139   -0.464900    2.531536 
| 58> H        2.161630   -0.902783   -2.603826 
| 59> H        3.697388   -1.694627   -3.016368 
| 60> C        2.697601   -2.411104    1.824913 
| 61> H        0.411078   -0.840608    1.910182 
| 62> H        1.101298   -0.955345    3.499474 
| 63> H        1.182937    0.613220    2.672323 
| 64> C        2.601288   -0.882352    1.885247 
| 65> H        2.586441   -2.826896    2.833616 
| 66> H        3.659680   -2.747270    1.429848 
| 67> H        1.903309   -2.831808    1.199333 
| 68> C        3.181998    2.276906    1.664687 
| 69> H        2.135318    2.587016    1.600131 
| 70> H        3.793597    3.184158    1.733044 
| 71> H        3.324478    1.710719    2.590306 
| 72> C        3.508784    2.354763   -0.833649 
| 73> H        2.465553    2.610163   -1.046808 
| 74> H        3.919372    1.854332   -1.714343 
| 75> H        4.068793    3.284623   -0.679973 
| 76> *
| 77> 
| 78> %maxcore 5000
| 79> 
| 80> %pal
| 81> nprocs = 24
| 82> end
| 83> 
| 84> 
| 85>                          ****END OF INPUT****
================================================================================

                       ****************************
                       * Single Point Calculation *
                       ****************************

---------------------------------
CARTESIAN COORDINATES (ANGSTROEM)
---------------------------------
  W      0.102077    0.091078   -0.092267
  C      0.117393   -1.847063   -0.698289
  O      0.106421   -2.944423   -1.101491
  C      0.053830    0.623127   -1.953542
  O      0.062184    0.954188   -3.084324
  C     -0.079789    2.065684    0.368043
  O     -0.241835    3.206144    0.563164
  P     -2.374272   -0.093775    0.152024
  C     -2.924700   -0.636961    1.860300
  H     -4.020662   -0.654132    1.869520
  C     -3.301587    1.526034   -0.042070
  H     -2.720709    2.174283    0.626552
  C     -3.158465   -1.412689   -0.926528
  H     -2.602719   -2.298136   -0.589541
  C      3.533012   -1.160075   -0.926747
  P      2.541683   -0.047968    0.198665
  H      3.436930   -0.493420    2.480788
  H      3.117150   -2.146572   -0.686664
  C      3.597094    1.476716    0.423185
  H      4.630625    1.133957    0.560412
  C     -3.162167    2.103519   -1.458162
  H     -3.455722    3.159421   -1.453162
  H     -3.815975    1.580772   -2.162650
  H     -2.136423    2.033109   -1.825887
  C     -4.764402    1.570333    0.422322
  H     -5.415801    0.983387   -0.229568
  H     -5.116762    2.608723    0.390691
  H     -4.893747    1.210688    1.447022
  C     -4.655036   -1.682881   -0.716884
  H     -4.925909   -1.790522    0.337405
  H     -4.929224   -2.613829   -1.227923
  H     -5.265149   -0.883893   -1.147063
  C     -2.846467   -1.236186   -2.419424
  H     -3.119249   -2.151958   -2.956758
  H     -1.787229   -1.039228   -2.589757
  H     -3.419310   -0.412085   -2.852792
  C     -2.418211   -2.050160    2.179041
  H     -2.879973   -2.804800    1.536232
  H     -2.649558   -2.306479    3.219697
  H     -1.332968   -2.120913    2.045449
  C     -2.447309    0.375917    2.910548
  H     -1.357998    0.484909    2.881372
  H     -2.729985    0.039964    3.915237
  H     -2.881675    1.366975    2.750689
  C      5.039293   -1.175311   -0.637409
  H      5.257150   -1.324613    0.425881
  H      5.510398   -0.237807   -0.951034
  H      5.518847   -1.987312   -1.196567
  C      3.236493   -0.904929   -2.411567
  H      3.640990    0.053418   -2.749243
  C      1.267139   -0.464900    2.531536
  H      2.161630   -0.902783   -2.603826
  H      3.697388   -1.694627   -3.016368
  C      2.697601   -2.411104    1.824913
  H      0.411078   -0.840608    1.910182
  H      1.101298   -0.955345    3.499474
  H      1.182937    0.613220    2.672323
  C      2.601288   -0.882352    1.885247
  H      2.586441   -2.826896    2.833616
  H      3.659680   -2.747270    1.429848
  H      1.903309   -2.831808    1.199333
  C      3.181998    2.276906    1.664687
  H      2.135318    2.587016    1.600131
  H      3.793597    3.184158    1.733044
  H      3.324478    1.710719    2.590306
  C      3.508784    2.354763   -0.833649
  H      2.465553    2.610163   -1.046808
  H      3.919372    1.854332   -1.714343
  H      4.068793    3.284623   -0.679973

----------------------------
CARTESIAN COORDINATES (A.U.)
----------------------------
  NO LB      ZA    FRAG     MASS         X           Y           Z
   0 W    14.0000*   0   183.850    0.192898    0.172112   -0.174359
   1 C     6.0000    0    12.011    0.221841   -3.490443   -1.319575
   2 O     8.0000    0    15.999    0.201107   -5.564153   -2.081516
   3 C     6.0000    0    12.011    0.101724    1.177539   -3.691659
   4 O     8.0000    0    15.999    0.117511    1.803154   -5.828528
   5 C     6.0000    0    12.011   -0.150779    3.903577    0.695500
   6 O     8.0000    0    15.999   -0.457002    6.058734    1.064226
   7 P    15.0000    0    30.974   -4.486724   -0.177209    0.287284
   8 C     6.0000    0    12.011   -5.526882   -1.203682    3.515458
   9 H     1.0000    0     1.008   -7.597950   -1.236130    3.532881
  10 C     6.0000    0    12.011   -6.239095    2.883786   -0.079501
  11 H     1.0000    0     1.008   -5.141395    4.108799    1.184012
  12 C     6.0000    0    12.011   -5.968634   -2.669595   -1.750884
  13 H     1.0000    0     1.008   -4.918426   -4.342848   -1.114071
  14 C     6.0000    0    12.011    6.676425   -2.192224   -1.751298
  15 P    15.0000    0    30.974    4.803085   -0.090646    0.375422
  16 H     1.0000    0     1.008    6.494856   -0.932429    4.688010
  17 H     1.0000    0     1.008    5.890560   -4.056433   -1.297607
  18 C     6.0000    0    12.011    6.797523    2.790589    0.799704
  19 H     1.0000    0     1.008    8.750613    2.142868    1.059025
  20 C     6.0000    0    12.011   -5.975630    3.975075   -2.755527
  21 H     1.0000    0     1.008   -6.530368    5.970440   -2.746078
  22 H     1.0000    0     1.008   -7.211148    2.987226   -4.086816
  23 H     1.0000    0     1.008   -4.037254    3.842019   -3.450426
  24 C     6.0000    0    12.011   -9.003415    2.967499    0.798073
  25 H     1.0000    0     1.008  -10.234381    1.858332   -0.433821
  26 H     1.0000    0     1.008   -9.669279    4.929772    0.738299
  27 H     1.0000    0     1.008   -9.247842    2.287869    2.734475
  28 C     6.0000    0    12.011   -8.796743   -3.180184   -1.354714
  29 H     1.0000    0     1.008   -9.308619   -3.383596    0.637603
  30 H     1.0000    0     1.008   -9.314883   -4.939421   -2.320438
  31 H     1.0000    0     1.008   -9.949690   -1.670316   -2.167635
  32 C     6.0000    0    12.011   -5.379043   -2.336053   -4.572049
  33 H     1.0000    0     1.008   -5.894526   -4.066611   -5.587463
  34 H     1.0000    0     1.008   -3.377373   -1.963856   -4.893931
  35 H     1.0000    0     1.008   -6.461559   -0.778728   -5.390996
  36 C     6.0000    0    12.011   -4.569757   -3.874241    4.117791
  37 H     1.0000    0     1.008   -5.442360   -5.300304    2.903058
  38 H     1.0000    0     1.008   -5.006939   -4.358614    6.084346
  39 H     1.0000    0     1.008   -2.518944   -4.007945    3.865338
  40 C     6.0000    0    12.011   -4.624744    0.710380    5.500139
  41 H     1.0000    0     1.008   -2.566244    0.916345    5.445004
  42 H     1.0000    0     1.008   -5.158924    0.075521    7.398726
  43 H     1.0000    0     1.008   -5.445577    2.583208    5.198049
  44 C     6.0000    0    12.011    9.522884   -2.221016   -1.204528
  45 H     1.0000    0     1.008    9.934574   -2.503156    0.804798
  46 H     1.0000    0     1.008   10.413143   -0.449390   -1.797194
  47 H     1.0000    0     1.008   10.429109   -3.755475   -2.261184
  48 C     6.0000    0    12.011    6.116085   -1.710068   -4.557201
  49 H     1.0000    0     1.008    6.880474    0.100945   -5.195316
  50 C     6.0000    0    12.011    2.394546   -0.878534    4.783910
  51 H     1.0000    0     1.008    4.084889   -1.706013   -4.920518
  52 H     1.0000    0     1.008    6.987051   -3.202381   -5.700109
  53 C     6.0000    0    12.011    5.097727   -4.556326    3.448586
  54 H     1.0000    0     1.008    0.776825   -1.588519    3.609721
  55 H     1.0000    0     1.008    2.081152   -1.805340    6.613047
  56 H     1.0000    0     1.008    2.235427    1.158818    5.049959
  57 C     6.0000    0    12.011    4.915722   -1.667404    3.562601
  58 H     1.0000    0     1.008    4.887665   -5.342059    5.354758
  59 H     1.0000    0     1.008    6.915793   -5.191588    2.702021
  60 H     1.0000    0     1.008    3.596733   -5.351342    2.266411
  61 C     6.0000    0    12.011    6.013105    4.302729    3.145803
  62 H     1.0000    0     1.008    4.035166    4.888752    3.023809
  63 H     1.0000    0     1.008    7.168859    6.017187    3.274979
  64 H     1.0000    0     1.008    6.282353    3.232790    4.894969
  65 C     6.0000    0    12.011    6.630641    4.449857   -1.575368
  66 H     1.0000    0     1.008    4.659220    4.932493   -1.978180
  67 H     1.0000    0     1.008    7.406540    3.504180   -3.239639
  68 H     1.0000    0     1.008    7.688904    6.207038   -1.284963
* core charge reduced due to ECP

--------------------------------
INTERNAL COORDINATES (ANGSTROEM)
--------------------------------
 W      0   0   0     0.000000000000     0.00000000     0.00000000
 C      1   0   0     2.030735773118     0.00000000     0.00000000
 O      2   1   0     1.169141226366   177.02617244     0.00000000
 C      1   2   3     1.936426744557    88.60040407   342.40756214
 O      4   1   2     1.178278026003   178.12993917   259.18367697
 C      1   2   3     2.035688923508   173.67819466    28.98073318
 O      6   1   4     1.168323637678   175.57246662    39.02775979
 P      1   2   3     2.495226060719    88.05140084    77.60807931
 C      8   1   2     1.875161034673   113.70112360    90.70634755
 H      9   8   1     1.096135282292   107.79971223   178.18283519
 C      8   1   2     1.876530518415   114.60449240   206.83083617
 H     11   8   1     1.097588901078   100.67727431   311.02701173
 C      8   1   2     1.875571170963   114.25143188   334.96772670
 H     13   8   1     1.098376185327   100.30596366    57.20509265
 C      2   1   4     3.491503791072    80.74182143    84.38674459
 P     15   2   1     1.867101319006    63.79084529    21.58361074
 H     16  15   2     2.491581839403   104.76320312   115.16646325
 H     15   2   1     1.097158776541    55.80371237   148.97493831
 C     16  15   2     1.867876577608   104.98970107   198.94221713
 H     19  16  15     1.097497749233   106.98982538   317.97256238
 C     11   8   1     1.535657323132   112.03168389    64.38066257
 H     21  11   8     1.095960114068   109.49842263   196.38522736
 H     21  11   8     1.094089881599   111.09048760    77.61454556
 H     21  11   8     1.091938641711   111.81307116   316.51555276
 C     11   8   1     1.535398988957   117.67298147   194.47891938
 H     25  11   8     1.092605526353   111.84198957   289.92688754
 H     25  11   8     1.097001313518   108.94180691   171.30473056
 H     25  11   8     1.093656593749   112.74162456    52.08801184
 C     13   8   1     1.535147902204   116.92594793   173.63799588
 H     29  13   8     1.093839139239   112.97672982   312.85391659
 H     29  13   8     1.096815434596   109.23615066   193.03411878
 H     29  13   8     1.093468641047   111.19914904    74.79194453
 C     13   8   1     1.535328801211   113.16330501   303.85259903
 H     33  13   8     1.096255537301   109.26923148   166.39411718
 H     33  13   8     1.090775378021   111.71173933    46.43097491
 H     33  13   8     1.093206011818   111.44706236   285.37467398
 C      9   8   1     1.534685096625   111.04344904   296.64993234
 H     37   9   8     1.093576282079   111.96278242   293.55773212
 H     37   9   8     1.096442326119   110.04492507   173.55368166
 H     37   9   8     1.095721305133   111.16226151    53.90750942
 C      9   8   1     1.535201899188   109.92741424    60.22279228
 H     41   9   8     1.095138781051   110.90043083   302.09643030
 H     41   9   8     1.096435190016   110.15369964   182.41577594
 H     41   9   8     1.093811995363   111.98230407    62.19772200
 C     15   2   1     1.533894085294   161.14833142   110.72327899
 H     45  15   2     1.095599554469   112.31437114   328.58765185
 H     45  15   2     1.095086440271   111.09581930   207.49527653
 H     45  15   2     1.096346355802   109.91883790    88.70489954
 C     15   2   1     1.535484754427    84.66691937   263.36304826
 H     49  15   2     1.093650710416   111.88577048   129.61316010
 C     17  16  15     2.170571752692    70.11617992   225.32498055
 H     49  15   2     1.091924263475   111.14221369     8.86829085
 H     49  15   2     1.096280703939   109.42648825   248.99648629
 C     17  16  15     2.157380659439    75.95569309   299.99072980
 H     51  17  16     1.122531839326   138.15932952    41.77891909
 H     51  17  16     1.097699187915    99.54207447   163.59843073
 H     51  17  16     1.090529087449    95.34729759   273.33995721
 C     17  16  15     1.097376296203    44.98281221   266.11331848
 H     54  17  16     1.096686498081    95.28570784   201.91658085
 H     54  17  16     1.093014151794    94.68209580    93.55788205
 H     54  17  16     1.095099070075   139.79323023   327.78227357
 C     19  16  15     1.534254197100   111.72286908   199.42029634
 H     62  19  16     1.093560566058   111.04402897   301.21476812
 H     62  19  16     1.096281080633   109.33791888   182.59138281
 H     62  19  16     1.094366850069   112.29398383    63.20476084
 C     19  16  15     1.535707294332   109.62353127    76.71532905
 H     66  19  16     1.094987140857   110.33220720    56.45815197
 H     66  19  16     1.092993876077   112.08989654   296.14773922
 H     66  19  16     1.096296498515   109.92900704   175.99336297

---------------------------
INTERNAL COORDINATES (A.U.)
---------------------------
 W      0   0   0     0.000000000000     0.00000000     0.00000000
 C      1   0   0     3.837534461550     0.00000000     0.00000000
 O      2   1   0     2.209356729708   177.02617244     0.00000000
 C      1   2   3     3.659316225613    88.60040407   342.40756214
 O      4   1   2     2.226622778763   178.12993917   259.18367697
 C      1   2   3     3.846894559287   173.67819466    28.98073318
 O      6   1   4     2.207811710998   175.57246662    39.02775979
 P      1   2   3     4.715293896982    88.05140084    77.60807931
 C      8   1   2     3.543540812532   113.70112360    90.70634755
 H      9   8   1     2.071395489260   107.79971223   178.18283519
 C      8   1   2     3.546128761749   114.60449240   206.83083617
 H     11   8   1     2.074142430668   100.67727431   311.02701173
 C      8   1   2     3.544315857799   114.25143188   334.96772670
 H     13   8   1     2.075630182290   100.30596366    57.20509265
 C      2   1   4     6.597985960674    80.74182143    84.38674459
 P     15   2   1     3.528310157205    63.79084529    21.58361074
 H     16  15   2     4.708407316723   104.76320312   115.16646325
 H     15   2   1     2.073329613092    55.80371237   148.97493831
 C     16  15   2     3.529775183645   104.98970107   198.94221713
 H     19  16  15     2.073970178645   106.98982538   317.97256238
 C     11   8   1     2.901971776270   112.03168389    64.38066257
 H     21  11   8     2.071064469291   109.49842263   196.38522736
 H     21  11   8     2.067530242116   111.09048760    77.61454556
 H     21  11   8     2.063464987879   111.81307116   316.51555276
 C     11   8   1     2.901483595428   117.67298147   194.47891938
 H     25  11   8     2.064725217216   111.84198957   289.92688754
 H     25  11   8     2.073032051102   108.94180691   171.30473056
 H     25  11   8     2.066711446742   112.74162456    52.08801184
 C     13   8   1     2.901009110229   116.92594793   173.63799588
 H     29  13   8     2.067056407726   112.97672982   312.85391659
 H     29  13   8     2.072680790845   109.23615066   193.03411878
 H     29  13   8     2.066356267611   111.19914904    74.79194453
 C     13   8   1     2.901350959811   113.16330501   303.85259903
 H     33  13   8     2.071622738294   109.26923148   166.39411718
 H     33  13   8     2.061266738084   111.71173933    46.43097491
 H     33  13   8     2.065859970291   111.44706236   285.37467398
 C      9   8   1     2.900134534432   111.04344904   296.64993234
 H     37   9   8     2.066559679680   111.96278242   293.55773212
 H     37   9   8     2.071975718005   110.04492507   173.55368166
 H     37   9   8     2.070613185804   111.16226151    53.90750942
 C      9   8   1     2.901111149740   109.92741424    60.22279228
 H     41   9   8     2.069512374822   110.90043083   302.09643030
 H     41   9   8     2.071962232725   110.15369964   182.41577594
 H     41   9   8     2.067005113235   111.98230407    62.19772200
 C     15   2   1     2.898639739648   161.14833142   110.72327899
 H     45  15   2     2.070383110393   112.31437114   328.58765185
 H     45  15   2     2.069413465083   111.09581930   207.49527653
 H     45  15   2     2.071794360389   109.91883790    88.70489954
 C     15   2   1     2.901645668678    84.66691937   263.36304826
 H     49  15   2     2.066700328855   111.88577048   129.61316010
 C     17  16  15     4.101786166614    70.11617992   225.32498055
 H     49  15   2     2.063437816952   111.14221369     8.86829085
 H     49  15   2     2.071670296348   109.42648825   248.99648629
 C     17  16  15     4.076858612958    75.95569309   299.99072980
 H     51  17  16     2.121277752933   138.15932952    41.77891909
 H     51  17  16     2.074350842588    99.54207447   163.59843073
 H     51  17  16     2.060801316354    95.34729759   273.33995721
 C     17  16  15     2.073740665681    44.98281221   266.11331848
 H     54  17  16     2.072437136142    95.28570784   201.91658085
 H     54  17  16     2.065497407391    94.68209580    93.55788205
 H     54  17  16     2.069437331954   139.79323023   327.78227357
 C     19  16  15     2.899320252339   111.72286908   199.42029634
 H     62  19  16     2.066529980705   111.04402897   301.21476812
 H     62  19  16     2.071671008196   109.33791888   182.59138281
 H     62  19  16     2.068053636673   112.29398383    63.20476084
 C     19  16  15     2.902066208153   109.62353127    76.71532905
 H     66  19  16     2.069225816385   110.33220720    56.45815197
 H     66  19  16     2.065459091838   112.08989654   296.14773922
 H     66  19  16     2.071700143771   109.92900704   175.99336297

---------------------
BASIS SET INFORMATION
---------------------
There are 5 groups of distinct atoms

 Group   1 Type W   : 8s8p6d2f1g contracted to 6s5p3d2f1g pattern {311111/41111/411/11/1}
 Group   2 Type C   : 12s6p3d1f contracted to 6s3p3d1f pattern {621111/411/111/1}
 Group   3 Type O   : 12s7p3d1f contracted to 6s4p3d1f pattern {621111/4111/111/1}
 Group   4 Type P   : 15s9p4d1f contracted to 6s5p4d1f pattern {732111/51111/1111/1}
 Group   5 Type H   : 5s3p1d contracted to 3s3p1d pattern {311/111/1}

Atom   0W    basis set group =>   1
Atom   1C    basis set group =>   2
Atom   2O    basis set group =>   3
Atom   3C    basis set group =>   2
Atom   4O    basis set group =>   3
Atom   5C    basis set group =>   2
Atom   6O    basis set group =>   3
Atom   7P    basis set group =>   4
Atom   8C    basis set group =>   2
Atom   9H    basis set group =>   5
Atom  10C    basis set group =>   2
Atom  11H    basis set group =>   5
Atom  12C    basis set group =>   2
Atom  13H    basis set group =>   5
Atom  14C    basis set group =>   2
Atom  15P    basis set group =>   4
Atom  16H    basis set group =>   5
Atom  17H    basis set group =>   5
Atom  18C    basis set group =>   2
Atom  19H    basis set group =>   5
Atom  20C    basis set group =>   2
Atom  21H    basis set group =>   5
Atom  22H    basis set group =>   5
Atom  23H    basis set group =>   5
Atom  24C    basis set group =>   2
Atom  25H    basis set group =>   5
Atom  26H    basis set group =>   5
Atom  27H    basis set group =>   5
Atom  28C    basis set group =>   2
Atom  29H    basis set group =>   5
Atom  30H    basis set group =>   5
Atom  31H    basis set group =>   5
Atom  32C    basis set group =>   2
Atom  33H    basis set group =>   5
Atom  34H    basis set group =>   5
Atom  35H    basis set group =>   5
Atom  36C    basis set group =>   2
Atom  37H    basis set group =>   5
Atom  38H    basis set group =>   5
Atom  39H    basis set group =>   5
Atom  40C    basis set group =>   2
Atom  41H    basis set group =>   5
Atom  42H    basis set group =>   5
Atom  43H    basis set group =>   5
Atom  44C    basis set group =>   2
Atom  45H    basis set group =>   5
Atom  46H    basis set group =>   5
Atom  47H    basis set group =>   5
Atom  48C    basis set group =>   2
Atom  49H    basis set group =>   5
Atom  50C    basis set group =>   2
Atom  51H    basis set group =>   5
Atom  52H    basis set group =>   5
Atom  53C    basis set group =>   2
Atom  54H    basis set group =>   5
Atom  55H    basis set group =>   5
Atom  56H    basis set group =>   5
Atom  57C    basis set group =>   2
Atom  58H    basis set group =>   5
Atom  59H    basis set group =>   5
Atom  60H    basis set group =>   5
Atom  61C    basis set group =>   2
Atom  62H    basis set group =>   5
Atom  63H    basis set group =>   5
Atom  64H    basis set group =>   5
Atom  65C    basis set group =>   2
Atom  66H    basis set group =>   5
Atom  67H    basis set group =>   5
Atom  68H    basis set group =>   5
---------------------------------
AUXILIARY/C BASIS SET INFORMATION
---------------------------------
There are 5 groups of distinct atoms

 Group   1 Type W   : 9s9p8d5f4g3h1i contracted to 9s9p8d5f4g3h1i pattern {111111111/111111111/11111111/11111/1111/111/1}
 Group   2 Type C   : 9s7p6d4f1g contracted to 9s7p5d4f1g pattern {111111111/1111111/21111/1111/1}
 Group   3 Type O   : 9s7p6d4f1g contracted to 9s7p5d4f1g pattern {111111111/1111111/21111/1111/1}
 Group   4 Type P   : 12s9p8d6f2g contracted to 12s9p8d6f2g pattern {111111111111/111111111/11111111/111111/11}
 Group   5 Type H   : 5s4p3d1f contracted to 5s4p3d1f pattern {11111/1111/111/1}

Atom   0W    basis set group =>   1
Atom   1C    basis set group =>   2
Atom   2O    basis set group =>   3
Atom   3C    basis set group =>   2
Atom   4O    basis set group =>   3
Atom   5C    basis set group =>   2
Atom   6O    basis set group =>   3
Atom   7P    basis set group =>   4
Atom   8C    basis set group =>   2
Atom   9H    basis set group =>   5
Atom  10C    basis set group =>   2
Atom  11H    basis set group =>   5
Atom  12C    basis set group =>   2
Atom  13H    basis set group =>   5
Atom  14C    basis set group =>   2
Atom  15P    basis set group =>   4
Atom  16H    basis set group =>   5
Atom  17H    basis set group =>   5
Atom  18C    basis set group =>   2
Atom  19H    basis set group =>   5
Atom  20C    basis set group =>   2
Atom  21H    basis set group =>   5
Atom  22H    basis set group =>   5
Atom  23H    basis set group =>   5
Atom  24C    basis set group =>   2
Atom  25H    basis set group =>   5
Atom  26H    basis set group =>   5
Atom  27H    basis set group =>   5
Atom  28C    basis set group =>   2
Atom  29H    basis set group =>   5
Atom  30H    basis set group =>   5
Atom  31H    basis set group =>   5
Atom  32C    basis set group =>   2
Atom  33H    basis set group =>   5
Atom  34H    basis set group =>   5
Atom  35H    basis set group =>   5
Atom  36C    basis set group =>   2
Atom  37H    basis set group =>   5
Atom  38H    basis set group =>   5
Atom  39H    basis set group =>   5
Atom  40C    basis set group =>   2
Atom  41H    basis set group =>   5
Atom  42H    basis set group =>   5
Atom  43H    basis set group =>   5
Atom  44C    basis set group =>   2
Atom  45H    basis set group =>   5
Atom  46H    basis set group =>   5
Atom  47H    basis set group =>   5
Atom  48C    basis set group =>   2
Atom  49H    basis set group =>   5
Atom  50C    basis set group =>   2
Atom  51H    basis set group =>   5
Atom  52H    basis set group =>   5
Atom  53C    basis set group =>   2
Atom  54H    basis set group =>   5
Atom  55H    basis set group =>   5
Atom  56H    basis set group =>   5
Atom  57C    basis set group =>   2
Atom  58H    basis set group =>   5
Atom  59H    basis set group =>   5
Atom  60H    basis set group =>   5
Atom  61C    basis set group =>   2
Atom  62H    basis set group =>   5
Atom  63H    basis set group =>   5
Atom  64H    basis set group =>   5
Atom  65C    basis set group =>   2
Atom  66H    basis set group =>   5
Atom  67H    basis set group =>   5
Atom  68H    basis set group =>   5
----------------------------------
AUXILIARY/JK BASIS SET INFORMATION
----------------------------------
There are 5 groups of distinct atoms

 Group   1 Type W   : 13s12p11d9f5g3h2i contracted to 11s9p9d7f4g3h2i pattern {31111111111/411111111/311111111/3111111/2111/111/11}
 Group   2 Type C   : 14s10p6d2f1g contracted to 10s8p5d1f1g pattern {5111111111/31111111/21111/2/1}
 Group   3 Type O   : 14s10p6d2f1g contracted to 10s8p4d2f1g pattern {5111111111/31111111/3111/11/1}
 Group   4 Type P   : 16s12p10d4f1g contracted to 13s11p9d4f1g pattern {4111111111111/21111111111/211111111/1111/1}
 Group   5 Type H   : 4s2p2d contracted to 2s2p2d pattern {31/11/11}

Atom   0W    basis set group =>   1
Atom   1C    basis set group =>   2
Atom   2O    basis set group =>   3
Atom   3C    basis set group =>   2
Atom   4O    basis set group =>   3
Atom   5C    basis set group =>   2
Atom   6O    basis set group =>   3
Atom   7P    basis set group =>   4
Atom   8C    basis set group =>   2
Atom   9H    basis set group =>   5
Atom  10C    basis set group =>   2
Atom  11H    basis set group =>   5
Atom  12C    basis set group =>   2
Atom  13H    basis set group =>   5
Atom  14C    basis set group =>   2
Atom  15P    basis set group =>   4
Atom  16H    basis set group =>   5
Atom  17H    basis set group =>   5
Atom  18C    basis set group =>   2
Atom  19H    basis set group =>   5
Atom  20C    basis set group =>   2
Atom  21H    basis set group =>   5
Atom  22H    basis set group =>   5
Atom  23H    basis set group =>   5
Atom  24C    basis set group =>   2
Atom  25H    basis set group =>   5
Atom  26H    basis set group =>   5
Atom  27H    basis set group =>   5
Atom  28C    basis set group =>   2
Atom  29H    basis set group =>   5
Atom  30H    basis set group =>   5
Atom  31H    basis set group =>   5
Atom  32C    basis set group =>   2
Atom  33H    basis set group =>   5
Atom  34H    basis set group =>   5
Atom  35H    basis set group =>   5
Atom  36C    basis set group =>   2
Atom  37H    basis set group =>   5
Atom  38H    basis set group =>   5
Atom  39H    basis set group =>   5
Atom  40C    basis set group =>   2
Atom  41H    basis set group =>   5
Atom  42H    basis set group =>   5
Atom  43H    basis set group =>   5
Atom  44C    basis set group =>   2
Atom  45H    basis set group =>   5
Atom  46H    basis set group =>   5
Atom  47H    basis set group =>   5
Atom  48C    basis set group =>   2
Atom  49H    basis set group =>   5
Atom  50C    basis set group =>   2
Atom  51H    basis set group =>   5
Atom  52H    basis set group =>   5
Atom  53C    basis set group =>   2
Atom  54H    basis set group =>   5
Atom  55H    basis set group =>   5
Atom  56H    basis set group =>   5
Atom  57C    basis set group =>   2
Atom  58H    basis set group =>   5
Atom  59H    basis set group =>   5
Atom  60H    basis set group =>   5
Atom  61C    basis set group =>   2
Atom  62H    basis set group =>   5
Atom  63H    basis set group =>   5
Atom  64H    basis set group =>   5
Atom  65C    basis set group =>   2
Atom  66H    basis set group =>   5
Atom  67H    basis set group =>   5
Atom  68H    basis set group =>   5
-------------------------
ECP PARAMETER INFORMATION
-------------------------

 Group 1, Type W  ECP Def2-ECP (replacing 60 core electrons, lmax=3)

Atom   0W    ECP group =>   1



           ************************************************************
           *        Program running with 24 parallel MPI-processes    *
           *              working on a common directory               *
           ************************************************************
------------------------------------------------------------------------------
                           ORCA GTO INTEGRAL CALCULATION
                           -- RI-GTO INTEGRALS CHOSEN --
------------------------------------------------------------------------------

                         BASIS SET STATISTICS AND STARTUP INFO

Gaussian basis set:
 # of primitive gaussian shells          ...  992
 # of primitive gaussian functions       ... 2278
 # of contracted shells                  ...  658
 # of contracted basis functions         ... 1766
 Highest angular momentum                ...    4
 Maximum contraction depth               ...    7
Auxiliary gaussian basis set:
 # of primitive gaussian shells          ... 1269
 # of primitive gaussian functions       ... 3717
 # of contracted shells                  ...  973
 # of contracted aux-basis functions     ... 3045
 Highest angular momentum                ...    6
 Maximum contraction depth               ...    5
Ratio of auxiliary to basis functions    ...  1.72
Integral package used                  ... LIBINT
 One Electron integrals                  
   ECP integrals                         ... done
 Ordering auxiliary basis shells         ... done
 Integral threshhold             Thresh  ...  1.000e-10
 Primitive cut-off               TCut    ...  1.000e-11
 Pre-screening matrix                    ... done
 Shell pair data                         ... 
 Ordering of the shell pairs             ... done (   0.034 sec) 159893 of 216811 pairs
 Determination of significant pairs      ... done (   0.001 sec)
 Creation of shell pair data             ... done (   0.015 sec)
 Storage of shell pair data              ... done (   0.037 sec)
 Shell pair data done in (   0.087 sec)
 Computing two index integrals           ... done
 Cholesky decomposition of the V-matrix  ... done


Timings:
 Total evaluation time                   ...  14.431 sec (  0.241 min)
 One electron matrix time                ...  12.418 sec (  0.207 min) = 86.1%
 Schwartz matrix evaluation time         ...   1.113 sec (  0.019 min) =  7.7%
 Two index repulsion integral time       ...   0.322 sec (  0.005 min) =  2.2%
 Cholesky decomposition of V             ...   0.462 sec (  0.008 min) =  3.2%
 Three index repulsion integral time     ...   0.000 sec (  0.000 min) =  0.0%



           ************************************************************
           *        Program running with 24 parallel MPI-processes    *
           *              working on a common directory               *
           ************************************************************
-------------------------------------------------------------------------------
                                 ORCA SCF
-------------------------------------------------------------------------------

------------
SCF SETTINGS
------------
Hamiltonian:
 Density Functional     Method          .... DFT(GTOs)
 Exchange Functional    Exchange        .... B88
   X-Alpha parameter    XAlpha          ....  0.666667
   Becke's b parameter  XBeta           ....  0.004200
 Correlation Functional Correlation     .... LYP
 LDA part of GGA corr.  LDAOpt          .... VWN-5
 Gradients option       PostSCFGGA      .... off
 Hybrid DFT is turned on
   Fraction HF Exchange ScalHFX         ....  0.710000
   Scaling of DF-GGA-X  ScalDFX         ....  0.290000
   Scaling of DF-GGA-C  ScalDFC         ....  0.540000
   Scaling of DF-LDA-C  ScalLDAC        ....  0.540000
   Perturbative correction              ....  1.000000
   Density functional embedding theory  .... OFF
 RI-approximation to the Coulomb term is turned on
   Number of auxiliary basis functions  .... 3045
   RI-JK (J+K treated both via RI)      .... on


General Settings:
 Integral files         IntName         .... MOR09_ed07
 Hartree-Fock type      HFTyp           .... RHF
 Total Charge           Charge          ....    0
 Multiplicity           Mult            ....    1
 Number of Electrons    NEL             ....  236
 Basis Dimension        Dim             .... 1766
 Nuclear Repulsion      ENuc            ....   3558.2821903299 Eh

Convergence Acceleration:
 DIIS                   CNVDIIS         .... on
   Start iteration      DIISMaxIt       ....    12
   Startup error        DIISStart       ....  0.200000
   # of expansion vecs  DIISMaxEq       ....     5
   Bias factor          DIISBfac        ....   1.050
   Max. coefficient     DIISMaxC        ....  10.000
 Newton-Raphson         CNVNR           .... off
 SOSCF                  CNVSOSCF        .... off
 Level Shifting         CNVShift        .... on
   Level shift para.    LevelShift      ....    0.2500
   Turn off err/grad.   ShiftErr        ....    0.0010
 Zerner damping         CNVZerner       .... off
 Static damping         CNVDamp         .... on
   Fraction old density DampFac         ....    0.7000
   Max. Damping (<1)    DampMax         ....    0.9800
   Min. Damping (>=0)   DampMin         ....    0.0000
   Turn off err/grad.   DampErr         ....    0.1000
 Fernandez-Rico         CNVRico         .... off

SCF Procedure:
 Maximum # iterations   MaxIter         ....   125
 SCF integral mode      SCFMode         .... Direct
   Integral package                     .... LIBINT
 Reset frequency        DirectResetFreq ....    20
 Integral Threshold     Thresh          ....  1.000e-10 Eh
 Primitive CutOff       TCut            ....  1.000e-11 Eh

Convergence Tolerance:
 Convergence Check Mode ConvCheckMode   .... Total+1el-Energy
 Convergence forced     ConvForced      .... 0
 Energy Change          TolE            ....  1.000e-06 Eh
 1-El. energy change                    ....  1.000e-03 Eh
 DIIS Error             TolErr          ....  1.000e-06


Diagonalization of the overlap matrix:
Smallest eigenvalue                        ... 2.214e-07
Time for diagonalization                   ...    0.405 sec
Threshold for overlap eigenvalues          ... 1.000e-08
Number of eigenvalues below threshold      ... 0
Time for construction of square roots      ...    0.413 sec
Total time needed                          ...    0.836 sec

-------------------
DFT GRID GENERATION
-------------------

General Integration Accuracy     IntAcc      ...  4.670
Radial Grid Type                 RadialGrid  ... Gauss-Chebyshev
Angular Grid (max. acc.)         AngularGrid ... Lebedev-302
Angular grid pruning method      GridPruning ... 3 (G Style)
Weight generation scheme         WeightScheme... Becke
Basis function cutoff            BFCut       ...    1.0000e-10
Integration weight cutoff        WCut        ...    1.0000e-14
Grids for H and He will be reduced by one unit

# of grid points (after initial pruning)     ... 316980 (   0.0 sec)
# of grid points (after weights+screening)   ... 264848 (   0.3 sec)
nearest neighbour list constructed           ...    0.0 sec
Grid point re-assignment to atoms done       ...    0.0 sec
Grid point division into batches done        ...    0.7 sec
Reduced shell lists constructed in    2.6 sec

Total number of grid points                  ...   264848
Total number of batches                      ...     4176
Average number of points per batch           ...       63
Average number of grid points per atom       ...     3838
Average number of shells per batch           ...   354.95 (53.94%)
Average number of basis functions per batch  ...   922.77 (52.25%)
Average number of large shells per batch     ...   254.91 (71.82%)
Average number of large basis fcns per batch ...   668.45 (72.44%)
Average number of aux-shells per batch       ...   354.95 (36.48%)
Average number of aux functions per batch    ...   922.77 (30.30%)
Maximum spatial batch extension              ...   3.10,  4.47,  3.27 au
Average spatial batch extension              ...   0.05,  0.05,  0.05 au

Time for grid setup =    3.024 sec

------------------------------
INITIAL GUESS: MODEL POTENTIAL
------------------------------
Loading Hartree-Fock densities                     ... done
  calling /sw/apps/orca/orca_4_2_0_linux_x86-64_openmpi314/orca MOR09_ed07_atom74.inp > MOR09_ed07_atom74.out in order to generate an atomic fitting density for atom 0 (W  with ECP) on-the-fly... 
    atom 0 (W ), assumed electronic state with S=5: 1s2 2s2 2p6 3s2 3p6 4s2 3d10 4p6 5s2 4d10 5p6 6s2 4f14 5d4           ... done
Calculating cut-offs                               ... done
Setting up the integral package                    ... done
Initializing the effective Hamiltonian             ... done
Starting the Coulomb interaction                   ... done (   0.7 sec)
Reading the grid                                   ... done
Mapping shells                                     ... done
Starting the XC term evaluation                    ... done (   1.9 sec)
  promolecular density results
     # of electrons  =    295.980285154
     EX              =   -516.626224849
     EC              =     -1.452852857
     EX+EC           =   -518.079077706
Transforming the Hamiltonian                       ... done (   0.2 sec)
Diagonalizing the Hamiltonian                      ... done (   0.4 sec)
Back transforming the eigenvectors                 ... done (   0.1 sec)
Now organizing SCF variables                       ... done
                      ------------------
                      INITIAL GUESS DONE (   8.4 sec)
                      ------------------
--------------
SCF ITERATIONS
--------------
ITER       Energy         Delta-E        Max-DP      RMS-DP      [F,P]     Damp
  0  -1795.6762187441   0.000000000000 7.59707927  0.01315507  0.3678905 0.7000
  1  -1795.2772723355   0.398946408584 5.87079197  0.00958929  0.2585620 0.7000
                               ***Turning on DIIS***
  2  -1795.5547921557  -0.277519820121 4.19622000  0.00672439  0.1677611 0.7000
  3  -1796.0495223328  -0.494730177126 2.65950352  0.00440399  0.1105168 0.7000
  4  -1796.5715300312  -0.522007698384 5.99874268  0.01032485  0.0787749 0.0000
  5  -1796.9546136243  -0.383083593084 1.20193469  0.00131317  0.0300846 0.0000
  6  -1796.9637149389  -0.009101314618 0.32622213  0.00041538  0.0218668 0.0000
  7  -1796.9662093910  -0.002494452111 0.55008179  0.00043908  0.0096054 0.0000
  8  -1796.9672483880  -0.001038996994 0.30435363  0.00057692  0.0068542 0.0000
  9  -1796.9678585214  -0.000610133376 0.14805895  0.00032076  0.0027385 0.0000
 10  -1796.9679058241  -0.000047302778 0.67846365  0.00056099  0.0009860 0.0000
 11  -1796.9679135208  -0.000007696649 0.49933412  0.00041872  0.0005261 0.0000
 12  -1796.9679153571  -0.000001836311 0.26894764  0.00035065  0.0004143 0.0000
 13  -1796.9679163954  -0.000001038273 0.54092912  0.00044611  0.0001062 0.0000
                 **** Energy Check signals convergence ****

               *****************************************************
               *                     SUCCESS                       *
               *           SCF CONVERGED AFTER  14 CYCLES          *
               *****************************************************


----------------
TOTAL SCF ENERGY
----------------

Total Energy       :        -1796.96791650 Eh          -48897.98293 eV

Components:
Nuclear Repulsion  :         3558.28219033 Eh           96825.78093 eV
Electronic Energy  :        -5355.25010683 Eh         -145723.76386 eV
One Electron Energy:        -9568.93491012 Eh         -260383.95657 eV
Two Electron Energy:         4213.68480329 Eh          114660.19271 eV

Virial components:
Potential Energy   :        -3546.00100593 Eh          -96491.59291 eV
Kinetic Energy     :         1749.03308944 Eh           47593.60998 eV
Virial Ratio       :            2.02740647


DFT components:
N(Alpha)           :      117.999880181210 electrons
N(Beta)            :      117.999880181210 electrons
N(Total)           :      235.999760362420 electrons
E(X)               :      -58.339814036954 Eh       
E(C)               :       -4.334121974282 Eh       
E(XC)              :      -62.673936011235 Eh       
DFET-embed. en.    :        0.000000000000 Eh       

---------------
SCF CONVERGENCE
---------------

  Last Energy change         ...   -1.0027e-07  Tolerance :   1.0000e-06
  Last MAX-Density change    ...    2.3264e-01  Tolerance :   1.0000e-05
  Last RMS-Density change    ...    2.5379e-04  Tolerance :   1.0000e-06
  Last DIIS Error            ...    8.1656e-05  Tolerance :   1.0000e-06

             **** THE GBW FILE WAS UPDATED (MOR09_ed07.gbw) ****
             **** DENSITY FILE WAS UPDATED (MOR09_ed07.scfp) ****
             **** ENERGY FILE WAS UPDATED (MOR09_ed07.en.tmp) ****
             **** THE GBW FILE WAS UPDATED (MOR09_ed07.gbw) ****
             **** DENSITY FILE WAS UPDATED (MOR09_ed07.scfp) ****
----------------
ORBITAL ENERGIES
----------------

  NO   OCC          E(Eh)            E(eV) 
   0   2.0000     -78.919875     -2147.5190 
   1   2.0000     -78.917951     -2147.4666 
   2   2.0000     -20.095336      -546.8219 
   3   2.0000     -20.094209      -546.7912 
   4   2.0000     -20.048705      -545.5530 
   5   2.0000     -10.954515      -298.0875 
   6   2.0000     -10.954249      -298.0803 
   7   2.0000     -10.920256      -297.1553 
   8   2.0000     -10.879162      -296.0371 
   9   2.0000     -10.876867      -295.9746 
  10   2.0000     -10.866060      -295.6805 
  11   2.0000     -10.865427      -295.6633 
  12   2.0000     -10.864241      -295.6310 
  13   2.0000     -10.860077      -295.5177 
  14   2.0000     -10.859634      -295.5057 
  15   2.0000     -10.857060      -295.4356 
  16   2.0000     -10.852526      -295.3122 
  17   2.0000     -10.850958      -295.2696 
  18   2.0000     -10.850549      -295.2584 
  19   2.0000     -10.848493      -295.2025 
  20   2.0000     -10.845446      -295.1196 
  21   2.0000     -10.844387      -295.0908 
  22   2.0000     -10.842427      -295.0374 
  23   2.0000     -10.837675      -294.9081 
  24   2.0000     -10.833836      -294.8037 
  25   2.0000     -10.831814      -294.7487 
  26   2.0000      -7.156675      -194.7430 
  27   2.0000      -7.153496      -194.6565 
  28   2.0000      -5.148590      -140.1003 
  29   2.0000      -5.148100      -140.0869 
  30   2.0000      -5.146575      -140.0454 
  31   2.0000      -5.145313      -140.0111 
  32   2.0000      -5.145233      -140.0089 
  33   2.0000      -5.143484      -139.9613 
  34   2.0000      -3.186174       -86.7002 
  35   2.0000      -1.742019       -47.4027 
  36   2.0000      -1.740832       -47.3704 
  37   2.0000      -1.729324       -47.0573 
  38   2.0000      -1.323459       -36.0131 
  39   2.0000      -1.322098       -35.9761 
  40   2.0000      -1.277020       -34.7495 
  41   2.0000      -1.007842       -27.4248 
  42   2.0000      -0.997354       -27.1394 
  43   2.0000      -0.975339       -26.5403 
  44   2.0000      -0.964589       -26.2478 
  45   2.0000      -0.962982       -26.2041 
  46   2.0000      -0.958257       -26.0755 
  47   2.0000      -0.871025       -23.7018 
  48   2.0000      -0.856610       -23.3095 
  49   2.0000      -0.852173       -23.1888 
  50   2.0000      -0.849563       -23.1178 
  51   2.0000      -0.848995       -23.1023 
  52   2.0000      -0.838885       -22.8272 
  53   2.0000      -0.807137       -21.9633 
  54   2.0000      -0.801145       -21.8003 
  55   2.0000      -0.739732       -20.1291 
  56   2.0000      -0.728634       -19.8271 
  57   2.0000      -0.726326       -19.7643 
  58   2.0000      -0.725507       -19.7421 
  59   2.0000      -0.705346       -19.1934 
  60   2.0000      -0.681334       -18.5400 
  61   2.0000      -0.660240       -17.9661 
  62   2.0000      -0.650103       -17.6902 
  63   2.0000      -0.642313       -17.4782 
  64   2.0000      -0.601289       -16.3619 
  65   2.0000      -0.591145       -16.0859 
  66   2.0000      -0.586597       -15.9621 
  67   2.0000      -0.580429       -15.7943 
  68   2.0000      -0.579363       -15.7653 
  69   2.0000      -0.572905       -15.5895 
  70   2.0000      -0.561873       -15.2894 
  71   2.0000      -0.561199       -15.2710 
  72   2.0000      -0.551232       -14.9998 
  73   2.0000      -0.543879       -14.7997 
  74   2.0000      -0.542501       -14.7622 
  75   2.0000      -0.538568       -14.6552 
  76   2.0000      -0.535671       -14.5763 
  77   2.0000      -0.534591       -14.5470 
  78   2.0000      -0.532628       -14.4935 
  79   2.0000      -0.529080       -14.3970 
  80   2.0000      -0.518640       -14.1129 
  81   2.0000      -0.516465       -14.0537 
  82   2.0000      -0.512419       -13.9436 
  83   2.0000      -0.511513       -13.9190 
  84   2.0000      -0.509459       -13.8631 
  85   2.0000      -0.507161       -13.8006 
  86   2.0000      -0.505428       -13.7534 
  87   2.0000      -0.502400       -13.6710 
  88   2.0000      -0.500609       -13.6223 
  89   2.0000      -0.497486       -13.5373 
  90   2.0000      -0.495443       -13.4817 
  91   2.0000      -0.492287       -13.3958 
  92   2.0000      -0.490958       -13.3596 
  93   2.0000      -0.488406       -13.2902 
  94   2.0000      -0.486665       -13.2428 
  95   2.0000      -0.478504       -13.0208 
  96   2.0000      -0.467354       -12.7174 
  97   2.0000      -0.462598       -12.5879 
  98   2.0000      -0.460116       -12.5204 
  99   2.0000      -0.451351       -12.2819 
 100   2.0000      -0.449251       -12.2247 
 101   2.0000      -0.448549       -12.2056 
 102   2.0000      -0.443579       -12.0704 
 103   2.0000      -0.439180       -11.9507 
 104   2.0000      -0.438439       -11.9305 
 105   2.0000      -0.434970       -11.8361 
 106   2.0000      -0.432937       -11.7808 
 107   2.0000      -0.432520       -11.7695 
 108   2.0000      -0.430731       -11.7208 
 109   2.0000      -0.387778       -10.5520 
 110   2.0000      -0.381739       -10.3876 
 111   2.0000      -0.379429       -10.3248 
 112   2.0000      -0.374631       -10.1942 
 113   2.0000      -0.369577       -10.0567 
 114   2.0000      -0.321722        -8.7545 
 115   2.0000      -0.241288        -6.5658 
 116   2.0000      -0.232058        -6.3146 
 117   2.0000      -0.223891        -6.0924 
 118   0.0000       0.019020         0.5176 
 119   0.0000       0.035161         0.9568 
 120   0.0000       0.039931         1.0866 
 121   0.0000       0.044464         1.2099 
 122   0.0000       0.048289         1.3140 
 123   0.0000       0.051420         1.3992 
 124   0.0000       0.057160         1.5554 
 125   0.0000       0.059689         1.6242 
 126   0.0000       0.060510         1.6465 
 127   0.0000       0.069020         1.8781 
 128   0.0000       0.069404         1.8886 
 129   0.0000       0.074450         2.0259 
 130   0.0000       0.076786         2.0895 
 131   0.0000       0.078028         2.1233 
 132   0.0000       0.082278         2.2389 
 133   0.0000       0.083582         2.2744 
 134   0.0000       0.094073         2.5599 
 135   0.0000       0.096314         2.6208 
 136   0.0000       0.098914         2.6916 
 137   0.0000       0.102803         2.7974 
 138   0.0000       0.105466         2.8699 
 139   0.0000       0.107654         2.9294 
 140   0.0000       0.110948         3.0191 
 141   0.0000       0.115023         3.1299 
 142   0.0000       0.115965         3.1556 
 143   0.0000       0.117285         3.1915 
 144   0.0000       0.123135         3.3507 
 145   0.0000       0.125069         3.4033 
 146   0.0000       0.127706         3.4750 
 147   0.0000       0.133956         3.6451 
 148   0.0000       0.135927         3.6988 
 149   0.0000       0.139193         3.7876 
 150   0.0000       0.140151         3.8137 
 151   0.0000       0.141861         3.8602 
 152   0.0000       0.144954         3.9444 
 153   0.0000       0.146058         3.9744 
 154   0.0000       0.148005         4.0274 
 155   0.0000       0.151138         4.1127 
 156   0.0000       0.154645         4.2081 
 157   0.0000       0.157284         4.2799 
 158   0.0000       0.161948         4.4068 
 159   0.0000       0.165739         4.5100 
 160   0.0000       0.166442         4.5291 
 161   0.0000       0.167429         4.5560 
 162   0.0000       0.170088         4.6283 
 163   0.0000       0.172157         4.6846 
 164   0.0000       0.173559         4.7228 
 165   0.0000       0.174442         4.7468 
 166   0.0000       0.176959         4.8153 
 167   0.0000       0.180238         4.9045 
 168   0.0000       0.182481         4.9655 
 169   0.0000       0.186131         5.0649 
 170   0.0000       0.188612         5.1324 
 171   0.0000       0.189127         5.1464 
 172   0.0000       0.192497         5.2381 
 173   0.0000       0.194780         5.3002 
 174   0.0000       0.194959         5.3051 
 175   0.0000       0.196921         5.3585 
 176   0.0000       0.198939         5.4134 
 177   0.0000       0.200283         5.4500 
 178   0.0000       0.201723         5.4892 
 179   0.0000       0.204204         5.5567 
 180   0.0000       0.205176         5.5831 
 181   0.0000       0.210636         5.7317 
 182   0.0000       0.212810         5.7908 
 183   0.0000       0.215613         5.8671 
 184   0.0000       0.217746         5.9252 
 185   0.0000       0.219561         5.9746 
 186   0.0000       0.223405         6.0792 
 187   0.0000       0.224602         6.1117 
 188   0.0000       0.227051         6.1784 
 189   0.0000       0.228335         6.2133 
 190   0.0000       0.230645         6.2762 
 191   0.0000       0.234540         6.3822 
 192   0.0000       0.236593         6.4380 
 193   0.0000       0.237779         6.4703 
 194   0.0000       0.238573         6.4919 
 195   0.0000       0.240618         6.5476 
 196   0.0000       0.243687         6.6311 
 197   0.0000       0.245173         6.6715 
 198   0.0000       0.246329         6.7029 
 199   0.0000       0.248729         6.7682 
 200   0.0000       0.250182         6.8078 
 201   0.0000       0.250932         6.8282 
 202   0.0000       0.253981         6.9112 
 203   0.0000       0.255473         6.9518 
 204   0.0000       0.258079         7.0227 
 205   0.0000       0.259108         7.0507 
 206   0.0000       0.261132         7.1058 
 207   0.0000       0.264709         7.2031 
 208   0.0000       0.265545         7.2259 
 209   0.0000       0.269539         7.3345 
 210   0.0000       0.270880         7.3710 
 211   0.0000       0.274462         7.4685 
 212   0.0000       0.275233         7.4895 
 213   0.0000       0.276327         7.5192 
 214   0.0000       0.277857         7.5609 
 215   0.0000       0.281630         7.6635 
 216   0.0000       0.284878         7.7519 
 217   0.0000       0.285936         7.7807 
 218   0.0000       0.286316         7.7911 
 219   0.0000       0.289799         7.8858 
 220   0.0000       0.291191         7.9237 
 221   0.0000       0.292574         7.9614 
 222   0.0000       0.296361         8.0644 
 223   0.0000       0.297450         8.0940 
 224   0.0000       0.300036         8.1644 
 225   0.0000       0.300640         8.1808 
 226   0.0000       0.301956         8.2166 
 227   0.0000       0.304745         8.2925 
 228   0.0000       0.305890         8.3237 
 229   0.0000       0.309059         8.4099 
 230   0.0000       0.310431         8.4473 
 231   0.0000       0.315266         8.5788 
 232   0.0000       0.315956         8.5976 
 233   0.0000       0.316217         8.6047 
 234   0.0000       0.319124         8.6838 
 235   0.0000       0.320450         8.7199 
 236   0.0000       0.322900         8.7866 
 237   0.0000       0.324125         8.8199 
 238   0.0000       0.325098         8.8464 
 239   0.0000       0.327242         8.9047 
 240   0.0000       0.329338         8.9617 
 241   0.0000       0.329703         8.9717 
 242   0.0000       0.331269         9.0143 
 243   0.0000       0.333925         9.0865 
 244   0.0000       0.335117         9.1190 
 245   0.0000       0.336215         9.1489 
 246   0.0000       0.337648         9.1879 
 247   0.0000       0.338879         9.2214 
 248   0.0000       0.342272         9.3137 
 249   0.0000       0.342961         9.3324 
 250   0.0000       0.345035         9.3889 
 251   0.0000       0.347614         9.4590 
 252   0.0000       0.350832         9.5466 
 253   0.0000       0.352077         9.5805 
 254   0.0000       0.353924         9.6308 
 255   0.0000       0.354609         9.6494 
 256   0.0000       0.356821         9.7096 
 257   0.0000       0.358414         9.7530 
 258   0.0000       0.358869         9.7653 
 259   0.0000       0.363301         9.8859 
 260   0.0000       0.366240         9.9659 
 261   0.0000       0.367384         9.9970 
 262   0.0000       0.369313        10.0495 
 263   0.0000       0.370259        10.0753 
 264   0.0000       0.371720        10.1150 
 265   0.0000       0.374022        10.1777 
 266   0.0000       0.376370        10.2415 
 267   0.0000       0.378621        10.3028 
 268   0.0000       0.380832        10.3630 
 269   0.0000       0.382685        10.4134 
 270   0.0000       0.383486        10.4352 
 271   0.0000       0.386656        10.5214 
 272   0.0000       0.389694        10.6041 
 273   0.0000       0.391431        10.6514 
 274   0.0000       0.392247        10.6736 
 275   0.0000       0.393539        10.7087 
 276   0.0000       0.394678        10.7397 
 277   0.0000       0.396533        10.7902 
 278   0.0000       0.398255        10.8371 
 279   0.0000       0.400997        10.9117 
 280   0.0000       0.402069        10.9409 
 281   0.0000       0.405091        11.0231 
 282   0.0000       0.405745        11.0409 
 283   0.0000       0.407443        11.0871 
 284   0.0000       0.408629        11.1194 
 285   0.0000       0.410141        11.1605 
 286   0.0000       0.411647        11.2015 
 287   0.0000       0.413243        11.2449 
 288   0.0000       0.415181        11.2976 
 289   0.0000       0.416862        11.3434 
 290   0.0000       0.418579        11.3901 
 291   0.0000       0.421822        11.4784 
 292   0.0000       0.425206        11.5704 
 293   0.0000       0.427900        11.6437 
 294   0.0000       0.429238        11.6802 
 295   0.0000       0.432838        11.7781 
 296   0.0000       0.433527        11.7969 
 297   0.0000       0.436989        11.8911 
 298   0.0000       0.438948        11.9444 
 299   0.0000       0.441587        12.0162 
 300   0.0000       0.442534        12.0420 
 301   0.0000       0.446783        12.1576 
 302   0.0000       0.448154        12.1949 
 303   0.0000       0.449223        12.2240 
 304   0.0000       0.451209        12.2780 
 305   0.0000       0.453799        12.3485 
 306   0.0000       0.455351        12.3907 
 307   0.0000       0.457044        12.4368 
 308   0.0000       0.458199        12.4682 
 309   0.0000       0.462885        12.5957 
 310   0.0000       0.463887        12.6230 
 311   0.0000       0.467177        12.7125 
 312   0.0000       0.469463        12.7747 
 313   0.0000       0.471001        12.8166 
 314   0.0000       0.474520        12.9123 
 315   0.0000       0.476710        12.9719 
 316   0.0000       0.478887        13.0312 
 317   0.0000       0.482279        13.1235 
 318   0.0000       0.484071        13.1722 
 319   0.0000       0.484665        13.1884 
 320   0.0000       0.486431        13.2365 
 321   0.0000       0.490116        13.3367 
 322   0.0000       0.490857        13.3569 
 323   0.0000       0.494490        13.4558 
 324   0.0000       0.495593        13.4858 
 325   0.0000       0.497217        13.5299 
 326   0.0000       0.498005        13.5514 
 327   0.0000       0.500174        13.6104 
 328   0.0000       0.501565        13.6483 
 329   0.0000       0.503214        13.6931 
 330   0.0000       0.507504        13.8099 
 331   0.0000       0.507819        13.8185 
 332   0.0000       0.508546        13.8382 
 333   0.0000       0.513482        13.9726 
 334   0.0000       0.514964        14.0129 
 335   0.0000       0.516238        14.0475 
 336   0.0000       0.518487        14.1088 
 337   0.0000       0.519040        14.1238 
 338   0.0000       0.520021        14.1505 
 339   0.0000       0.521906        14.2018 
 340   0.0000       0.526071        14.3151 
 341   0.0000       0.528944        14.3933 
 342   0.0000       0.531283        14.4569 
 343   0.0000       0.531722        14.4689 
 344   0.0000       0.534594        14.5470 
 345   0.0000       0.536217        14.5912 
 346   0.0000       0.537839        14.6353 
 347   0.0000       0.538368        14.6497 
 348   0.0000       0.540223        14.7002 
 349   0.0000       0.543898        14.8002 
 350   0.0000       0.544318        14.8117 
 351   0.0000       0.546276        14.8649 
 352   0.0000       0.550335        14.9754 
 353   0.0000       0.553548        15.0628 
 354   0.0000       0.555374        15.1125 
 355   0.0000       0.556478        15.1425 
 356   0.0000       0.559477        15.2241 
 357   0.0000       0.560615        15.2551 
 358   0.0000       0.563009        15.3203 
 359   0.0000       0.566546        15.4165 
 360   0.0000       0.566845        15.4246 
 361   0.0000       0.569653        15.5010 
 362   0.0000       0.571387        15.5482 
 363   0.0000       0.571643        15.5552 
 364   0.0000       0.573362        15.6020 
 365   0.0000       0.575600        15.6629 
 366   0.0000       0.579445        15.7675 
 367   0.0000       0.582636        15.8543 
 368   0.0000       0.584805        15.9134 
 369   0.0000       0.584858        15.9148 
 370   0.0000       0.586386        15.9564 
 371   0.0000       0.589084        16.0298 
 372   0.0000       0.592121        16.1124 
 373   0.0000       0.594340        16.1728 
 374   0.0000       0.595876        16.2146 
 375   0.0000       0.597140        16.2490 
 376   0.0000       0.598740        16.2925 
 377   0.0000       0.600045        16.3281 
 378   0.0000       0.603241        16.4150 
 379   0.0000       0.604628        16.4528 
 380   0.0000       0.605818        16.4852 
 381   0.0000       0.609089        16.5742 
 382   0.0000       0.612947        16.6791 
 383   0.0000       0.614343        16.7171 
 384   0.0000       0.617037        16.7904 
 385   0.0000       0.618926        16.8418 
 386   0.0000       0.620922        16.8962 
 387   0.0000       0.623080        16.9549 
 388   0.0000       0.624046        16.9811 
 389   0.0000       0.626497        17.0478 
 390   0.0000       0.628640        17.1062 
 391   0.0000       0.629577        17.1316 
 392   0.0000       0.632085        17.1999 
 393   0.0000       0.634025        17.2527 
 394   0.0000       0.638086        17.3632 
 395   0.0000       0.640101        17.4180 
 396   0.0000       0.643454        17.5093 
 397   0.0000       0.645606        17.5678 
 398   0.0000       0.648235        17.6394 
 399   0.0000       0.649770        17.6811 
 400   0.0000       0.650464        17.7000 
 401   0.0000       0.651563        17.7299 
 402   0.0000       0.653875        17.7928 
 403   0.0000       0.658677        17.9235 
 404   0.0000       0.660354        17.9692 
 405   0.0000       0.661537        18.0013 
 406   0.0000       0.663949        18.0670 
 407   0.0000       0.667884        18.1741 
 408   0.0000       0.669325        18.2133 
 409   0.0000       0.669767        18.2253 
 410   0.0000       0.672923        18.3112 
 411   0.0000       0.673791        18.3348 
 412   0.0000       0.675164        18.3722 
 413   0.0000       0.676452        18.4072 
 414   0.0000       0.681315        18.5395 
 415   0.0000       0.682439        18.5701 
 416   0.0000       0.684676        18.6310 
 417   0.0000       0.685534        18.6543 
 418   0.0000       0.690442        18.7879 
 419   0.0000       0.690928        18.8011 
 420   0.0000       0.691304        18.8113 
 421   0.0000       0.692365        18.8402 
 422   0.0000       0.695460        18.9244 
 423   0.0000       0.697493        18.9797 
 424   0.0000       0.699873        19.0445 
 425   0.0000       0.702293        19.1104 
 426   0.0000       0.706013        19.2116 
 427   0.0000       0.707493        19.2519 
 428   0.0000       0.709403        19.3038 
 429   0.0000       0.711930        19.3726 
 430   0.0000       0.713463        19.4143 
 431   0.0000       0.716463        19.4960 
 432   0.0000       0.716956        19.5094 
 433   0.0000       0.719360        19.5748 
 434   0.0000       0.720222        19.5982 
 435   0.0000       0.722195        19.6519 
 436   0.0000       0.724849        19.7242 
 437   0.0000       0.724988        19.7279 
 438   0.0000       0.728548        19.8248 
 439   0.0000       0.729582        19.8529 
 440   0.0000       0.733187        19.9510 
 441   0.0000       0.735910        20.0251 
 442   0.0000       0.736770        20.0485 
 443   0.0000       0.738440        20.0940 
 444   0.0000       0.739877        20.1331 
 445   0.0000       0.741837        20.1864 
 446   0.0000       0.743470        20.2309 
 447   0.0000       0.744501        20.2589 
 448   0.0000       0.746389        20.3103 
 449   0.0000       0.749215        20.3872 
 450   0.0000       0.750627        20.4256 
 451   0.0000       0.751247        20.4425 
 452   0.0000       0.754125        20.5208 
 453   0.0000       0.756568        20.5873 
 454   0.0000       0.757827        20.6215 
 455   0.0000       0.758783        20.6475 
 456   0.0000       0.760661        20.6986 
 457   0.0000       0.761212        20.7136 
 458   0.0000       0.763547        20.7772 
 459   0.0000       0.764845        20.8125 
 460   0.0000       0.767540        20.8858 
 461   0.0000       0.768732        20.9182 
 462   0.0000       0.770496        20.9663 
 463   0.0000       0.774745        21.0819 
 464   0.0000       0.776525        21.1303 
 465   0.0000       0.777433        21.1550 
 466   0.0000       0.780604        21.2413 
 467   0.0000       0.780794        21.2465 
 468   0.0000       0.783390        21.3171 
 469   0.0000       0.784488        21.3470 
 470   0.0000       0.786625        21.4052 
 471   0.0000       0.788221        21.4486 
 472   0.0000       0.789126        21.4732 
 473   0.0000       0.793863        21.6021 
 474   0.0000       0.795675        21.6514 
 475   0.0000       0.799244        21.7485 
 476   0.0000       0.799982        21.7686 
 477   0.0000       0.803123        21.8541 
 478   0.0000       0.803524        21.8650 
 479   0.0000       0.806653        21.9501 
 480   0.0000       0.807876        21.9834 
 481   0.0000       0.810982        22.0679 
 482   0.0000       0.812236        22.1021 
 483   0.0000       0.815073        22.1793 
 484   0.0000       0.816564        22.2198 
 485   0.0000       0.819226        22.2923 
 486   0.0000       0.821133        22.3442 
 487   0.0000       0.822791        22.3893 
 488   0.0000       0.824114        22.4253 
 489   0.0000       0.825800        22.4712 
 490   0.0000       0.827705        22.5230 
 491   0.0000       0.829264        22.5654 
 492   0.0000       0.831059        22.6143 
 493   0.0000       0.832901        22.6644 
 494   0.0000       0.835052        22.7229 
 495   0.0000       0.838690        22.8219 
 496   0.0000       0.841687        22.9035 
 497   0.0000       0.843072        22.9412 
 498   0.0000       0.845685        23.0123 
 499   0.0000       0.847864        23.0716 
 500   0.0000       0.849142        23.1063 
 501   0.0000       0.851019        23.1574 
 502   0.0000       0.852321        23.1928 
 503   0.0000       0.855410        23.2769 
 504   0.0000       0.857450        23.3324 
 505   0.0000       0.858306        23.3557 
 506   0.0000       0.859083        23.3769 
 507   0.0000       0.860379        23.4121 
 508   0.0000       0.862495        23.4697 
 509   0.0000       0.866212        23.5708 
 510   0.0000       0.868917        23.6444 
 511   0.0000       0.870497        23.6874 
 512   0.0000       0.872876        23.7522 
 513   0.0000       0.875356        23.8196 
 514   0.0000       0.876481        23.8502 
 515   0.0000       0.880601        23.9624 
 516   0.0000       0.882583        24.0163 
 517   0.0000       0.885287        24.0899 
 518   0.0000       0.885571        24.0976 
 519   0.0000       0.889799        24.2127 
 520   0.0000       0.891660        24.2633 
 521   0.0000       0.892564        24.2879 
 522   0.0000       0.896571        24.3969 
 523   0.0000       0.898456        24.4482 
 524   0.0000       0.900804        24.5121 
 525   0.0000       0.902725        24.5644 
 526   0.0000       0.904052        24.6005 
 527   0.0000       0.906430        24.6652 
 528   0.0000       0.911120        24.7928 
 529   0.0000       0.914790        24.8927 
 530   0.0000       0.916469        24.9384 
 531   0.0000       0.919074        25.0093 
 532   0.0000       0.920345        25.0439 
 533   0.0000       0.921000        25.0617 
 534   0.0000       0.922744        25.1091 
 535   0.0000       0.927365        25.2349 
 536   0.0000       0.928174        25.2569 
 537   0.0000       0.931820        25.3561 
 538   0.0000       0.932667        25.3792 
 539   0.0000       0.936414        25.4811 
 540   0.0000       0.937789        25.5185 
 541   0.0000       0.939937        25.5770 
 542   0.0000       0.942833        25.6558 
 543   0.0000       0.945442        25.7268 
 544   0.0000       0.947343        25.7785 
 545   0.0000       0.950254        25.8577 
 546   0.0000       0.953117        25.9356 
 547   0.0000       0.954688        25.9784 
 548   0.0000       0.959398        26.1065 
 549   0.0000       0.960391        26.1336 
 550   0.0000       0.962312        26.1858 
 551   0.0000       0.969406        26.3789 
 552   0.0000       0.971541        26.4370 
 553   0.0000       0.973997        26.5038 
 554   0.0000       0.974096        26.5065 
 555   0.0000       0.978489        26.6260 
 556   0.0000       0.982370        26.7316 
 557   0.0000       0.984168        26.7806 
 558   0.0000       0.985839        26.8260 
 559   0.0000       0.991065        26.9683 
 560   0.0000       0.992968        27.0200 
 561   0.0000       0.994505        27.0618 
 562   0.0000       0.996763        27.1233 
 563   0.0000       0.999068        27.1860 
 564   0.0000       1.000916        27.2363 
 565   0.0000       1.002785        27.2872 
 566   0.0000       1.004996        27.3473 
 567   0.0000       1.011977        27.5373 
 568   0.0000       1.012699        27.5570 
 569   0.0000       1.014351        27.6019 
 570   0.0000       1.015950        27.6454 
 571   0.0000       1.020670        27.7738 
 572   0.0000       1.023639        27.8546 
 573   0.0000       1.024603        27.8809 
 574   0.0000       1.028061        27.9750 
 575   0.0000       1.030376        28.0379 
 576   0.0000       1.032961        28.1083 
 577   0.0000       1.035872        28.1875 
 578   0.0000       1.039218        28.2785 
 579   0.0000       1.042210        28.3600 
 580   0.0000       1.045268        28.4432 
 581   0.0000       1.049803        28.5666 
 582   0.0000       1.051518        28.6133 
 583   0.0000       1.054034        28.6817 
 584   0.0000       1.055273        28.7154 
 585   0.0000       1.057606        28.7789 
 586   0.0000       1.060374        28.8543 
 587   0.0000       1.061893        28.8956 
 588   0.0000       1.066998        29.0345 
 589   0.0000       1.068930        29.0871 
 590   0.0000       1.071879        29.1673 
 591   0.0000       1.073470        29.2106 
 592   0.0000       1.082811        29.4648 
 593   0.0000       1.087469        29.5915 
 594   0.0000       1.090424        29.6719 
 595   0.0000       1.092198        29.7202 
 596   0.0000       1.093093        29.7446 
 597   0.0000       1.097157        29.8552 
 598   0.0000       1.101363        29.9696 
 599   0.0000       1.102937        30.0124 
 600   0.0000       1.107105        30.1259 
 601   0.0000       1.112155        30.2633 
 602   0.0000       1.114324        30.3223 
 603   0.0000       1.119562        30.4648 
 604   0.0000       1.121036        30.5049 
 605   0.0000       1.125057        30.6144 
 606   0.0000       1.126373        30.6502 
 607   0.0000       1.128751        30.7149 
 608   0.0000       1.131717        30.7956 
 609   0.0000       1.136425        30.9237 
 610   0.0000       1.141660        31.0662 
 611   0.0000       1.145828        31.1796 
 612   0.0000       1.148068        31.2405 
 613   0.0000       1.148335        31.2478 
 614   0.0000       1.151864        31.3438 
[...]
      px      :     0.911189
      py      :     0.883403
      dz2     :     0.142952  d :     0.548780
      dxz     :     0.090254
      dyz     :     0.125140
      dx2y2   :     0.085618
      dxy     :     0.104817
      f0      :     0.004496  f :     0.031218
      f+1     :     0.005060
      f-1     :     0.006335
      f+2     :     0.003741
      f-2     :     0.004789
      f+3     :     0.004872
      f-3     :     0.001925
 66 H s       :     0.685696  s :     0.685696
      pz      :     0.075586  p :     0.305288
      px      :     0.146339
      py      :     0.083363
      dz2     :     0.002876  d :     0.028874
      dxz     :     0.008620
      dyz     :     0.001126
      dx2y2   :     0.007234
      dxy     :     0.009019
 67 H s       :     0.693472  s :     0.693472
      pz      :     0.113920  p :     0.309710
      px      :     0.086405
      py      :     0.109386
      dz2     :     0.008877  d :     0.028923
      dxz     :     0.006593
      dyz     :     0.007033
      dx2y2   :     0.003407
      dxy     :     0.003012
 68 H s       :     0.700053  s :     0.700053
      pz      :     0.076606  p :     0.277846
      px      :     0.088303
      py      :     0.112937
      dz2     :     0.002889  d :     0.028771
      dxz     :     0.002130
      dyz     :     0.007075
      dx2y2   :     0.009058
      dxy     :     0.007619


                      *****************************
                      * MAYER POPULATION ANALYSIS *
                      *****************************

  NA   - Mulliken gross atomic population
  ZA   - Total nuclear charge
  QA   - Mulliken gross atomic charge
  VA   - Mayer's total valence
  BVA  - Mayer's bonded valence
  FA   - Mayer's free valence

  ATOM       NA         ZA         QA         VA         BVA        FA
  0 W     14.0645    14.0000    -0.0645     3.4653     3.4653    -0.0000
  1 C      5.5669     6.0000     0.4331     3.8893     3.8893    -0.0000
  2 O      8.5163     8.0000    -0.5163     1.9230     1.9230     0.0000
  3 C      5.1955     6.0000     0.8045     3.8584     3.8584    -0.0000
  4 O      8.6021     8.0000    -0.6021     1.8899     1.8899    -0.0000
  5 C      5.6362     6.0000     0.3638     3.3941     3.3941    -0.0000
  6 O      8.5209     8.0000    -0.5209     1.9895     1.9895    -0.0000
  7 P     15.6288    15.0000    -0.6288     3.4890     3.4890    -0.0000
  8 C      5.1251     6.0000     0.8749     3.4000     3.4000    -0.0000
  9 H      0.7005     1.0000     0.2995     0.5476     0.5476    -0.0000
 10 C      4.9176     6.0000     1.0824     2.9657     2.9657    -0.0000
 11 H      0.8919     1.0000     0.1081     0.8153     0.8153     0.0000
 12 C      4.9040     6.0000     1.0960     3.0897     3.0897    -0.0000
 13 H      0.8627     1.0000     0.1373     0.7718     0.7718    -0.0000
 14 C      4.6528     6.0000     1.3472     2.1787     2.1787     0.0000
 15 P     15.9679    15.0000    -0.9679     3.2565     3.2565    -0.0000
 16 H      0.6281     1.0000     0.3719     0.6021     0.6021    -0.0000
 17 H      0.7926     1.0000     0.2074     0.7587     0.7587     0.0000
 18 C      4.9237     6.0000     1.0763     2.6070     2.6070     0.0000
 19 H      0.6630     1.0000     0.3370     0.5361     0.5361     0.0000
 20 C      6.6786     6.0000    -0.6786     3.9022     3.9022     0.0000
 21 H      0.8943     1.0000     0.1057     0.9824     0.9824     0.0000
 22 H      0.9703     1.0000     0.0297     1.0602     1.0602     0.0000
 23 H      0.9902     1.0000     0.0098     1.0930     1.0930     0.0000
 24 C      6.7061     6.0000    -0.7061     3.8997     3.8997    -0.0000
 25 H      0.9947     1.0000     0.0053     1.0598     1.0598    -0.0000
 26 H      0.8746     1.0000     0.1254     0.9896     0.9896     0.0000
 27 H      0.9232     1.0000     0.0768     1.0354     1.0354    -0.0000
 28 C      6.7631     6.0000    -0.7631     3.9032     3.9032     0.0000
 29 H      0.8947     1.0000     0.1053     0.9937     0.9937     0.0000
 30 H      0.8938     1.0000     0.1062     1.0031     1.0031     0.0000
 31 H      0.9622     1.0000     0.0378     1.0549     1.0549     0.0000
 32 C      6.6106     6.0000    -0.6106     3.8133     3.8133    -0.0000
 33 H      0.8830     1.0000     0.1170     0.9603     0.9603    -0.0000
 34 H      1.0154     1.0000    -0.0154     1.0942     1.0942    -0.0000
 35 H      0.9795     1.0000     0.0205     1.0501     1.0501    -0.0000
 36 C      6.7329     6.0000    -0.7329     3.9365     3.9365    -0.0000
 37 H      0.9194     1.0000     0.0806     1.0388     1.0388    -0.0000
 38 H      0.9127     1.0000     0.0873     1.0135     1.0135    -0.0000
 39 H      1.0208     1.0000    -0.0208     1.0122     1.0122    -0.0000
 40 C      6.6215     6.0000    -0.6215     3.9645     3.9645     0.0000
 41 H      1.0947     1.0000    -0.0947     1.0845     1.0845     0.0000
 42 H      0.9073     1.0000     0.0927     1.0367     1.0367    -0.0000
 43 H      0.8951     1.0000     0.1049     1.0353     1.0353     0.0000
 44 C      6.7826     6.0000    -0.7826     3.8817     3.8817    -0.0000
 45 H      0.8980     1.0000     0.1020     1.0140     1.0140     0.0000
 46 H      0.9368     1.0000     0.0632     1.0301     1.0301    -0.0000
 47 H      0.8962     1.0000     0.1038     1.0069     1.0069    -0.0000
 48 C      6.5672     6.0000    -0.5672     3.8454     3.8454    -0.0000
 49 H      0.9900     1.0000     0.0100     1.0522     1.0522    -0.0000
 50 C      6.5356     6.0000    -0.5356     4.9443     4.9443     0.0000
 51 H      0.9884     1.0000     0.0116     1.0694     1.0694    -0.0000
 52 H      0.8856     1.0000     0.1144     0.9833     0.9833    -0.0000
 53 C      6.7184     6.0000    -0.7184     3.8603     3.8603    -0.0000
 54 H      1.3299     1.0000    -0.3299     1.4469     1.4469     0.0000
 55 H      0.9510     1.0000     0.0490     0.9696     0.9696     0.0000
 56 H      0.8955     1.0000     0.1045     1.0071     1.0071     0.0000
 57 C      4.9887     6.0000     1.0113     2.8384     2.8384    -0.0000
 58 H      0.8933     1.0000     0.1067     1.0098     1.0098    -0.0000
 59 H      0.9400     1.0000     0.0600     0.9957     0.9957    -0.0000
 60 H      0.9409     1.0000     0.0591     1.0448     1.0448    -0.0000
 61 C      6.6310     6.0000    -0.6310     3.9681     3.9681    -0.0000
 62 H      1.0003     1.0000    -0.0003     1.0900     1.0900    -0.0000
 63 H      0.8728     1.0000     0.1272     0.9718     0.9718    -0.0000
 64 H      0.9607     1.0000     0.0393     1.0212     1.0212    -0.0000
 65 C      6.6704     6.0000    -0.6704     4.1119     4.1119    -0.0000
 66 H      0.9746     1.0000     0.0254     1.0792     1.0792     0.0000
 67 H      0.9736     1.0000     0.0264     1.0518     1.0518    -0.0000
 68 H      0.8783     1.0000     0.1217     0.9787     0.9787    -0.0000

  Mayer bond orders larger than 0.100000
B(  0-W ,  1-C ) :   0.8459 B(  0-W ,  3-C ) :   1.7366 B(  0-W ,  5-C ) :   0.1912 
B(  0-W ,  7-P ) :  -0.5383 B(  0-W , 10-C ) :   0.1473 B(  0-W , 14-C ) :   0.1458 
B(  0-W , 18-C ) :   0.2639 B(  0-W , 54-H ) :   0.1222 B(  1-C ,  2-O ) :   1.8439 
B(  1-C ,  5-C ) :   0.6019 B(  1-C ,  7-P ) :   0.4597 B(  1-C , 15-P ) :   0.2330 
B(  1-C , 50-C ) :   0.1254 B(  1-C , 54-H ) :  -0.1027 B(  3-C ,  4-O ) :   1.7465 
B(  3-C ,  5-C ) :   0.2540 B(  3-C , 15-P ) :   0.2007 B(  5-C ,  6-O ) :   1.9080 
B(  5-C ,  7-P ) :   0.4236 B(  5-C , 15-P ) :   0.1728 B(  7-P ,  8-C ) :   1.0176 
B(  7-P , 10-C ) :   0.6259 B(  7-P , 12-C ) :   0.7287 B(  7-P , 15-P ) :  -0.2933 
B(  7-P , 24-C ) :   0.1802 B(  7-P , 28-C ) :   0.1606 B(  7-P , 36-C ) :   0.1425 
B(  7-P , 40-C ) :   0.1837 B(  8-C ,  9-H ) :   0.8166 B(  8-C , 10-C ) :   0.2609 
B(  8-C , 12-C ) :   0.2771 B(  8-C , 36-C ) :   0.6271 B(  8-C , 39-H ) :  -0.1196 
B(  8-C , 40-C ) :   0.6787 B(  8-C , 41-H ) :  -0.1017 B(  9-H , 36-C ) :  -0.1033 
B( 10-C , 11-H ) :   0.8883 B( 10-C , 12-C ) :   0.2617 B( 10-C , 20-C ) :   0.6200 
B( 10-C , 24-C ) :   0.5253 B( 10-C , 25-H ) :  -0.1019 B( 10-C , 40-C ) :   0.1143 
B( 11-H , 20-C ) :  -0.1008 B( 12-C , 13-H ) :   0.8585 B( 12-C , 28-C ) :   0.5369 
B( 12-C , 32-C ) :   0.6560 B( 12-C , 36-C ) :   0.1510 B( 14-C , 17-H ) :   0.8558 
B( 14-C , 18-C ) :   0.2247 B( 14-C , 44-C ) :   0.5193 B( 14-C , 46-H ) :  -0.1016 
B( 14-C , 48-C ) :   0.6207 B( 14-C , 57-C ) :   0.2082 B( 15-P , 16-H ) :  -0.2352 
B( 15-P , 18-C ) :   0.5868 B( 15-P , 44-C ) :   0.1855 B( 15-P , 48-C ) :   0.1337 
B( 15-P , 50-C ) :   0.5284 B( 15-P , 57-C ) :   0.6823 B( 15-P , 61-C ) :   0.2755 
B( 15-P , 65-C ) :   0.3081 B( 16-H , 57-C ) :   0.8453 B( 18-C , 19-H ) :   0.7904 
B( 18-C , 57-C ) :   0.1919 B( 18-C , 61-C ) :   0.4494 B( 18-C , 62-H ) :  -0.1133 
B( 18-C , 65-C ) :   0.5727 B( 19-H , 61-C ) :  -0.1333 B( 20-C , 21-H ) :   1.0328 
B( 20-C , 22-H ) :   1.0549 B( 20-C , 23-H ) :   1.0078 B( 20-C , 24-C ) :   0.1499 
B( 24-C , 25-H ) :   1.0460 B( 24-C , 26-H ) :   1.0648 B( 24-C , 27-H ) :   0.9773 
B( 28-C , 29-H ) :   0.9575 B( 28-C , 30-H ) :   1.0717 B( 28-C , 31-H ) :   1.0563 
B( 28-C , 32-C ) :   0.1298 B( 32-C , 33-H ) :   1.0181 B( 32-C , 34-H ) :   1.0038 
B( 32-C , 35-H ) :   1.0349 B( 36-C , 37-H ) :   0.9673 B( 36-C , 38-H ) :   1.0592 
B( 36-C , 39-H ) :   1.0206 B( 40-C , 41-H ) :   1.0374 B( 40-C , 42-H ) :   1.0298 
B( 40-C , 43-H ) :   0.9390 B( 44-C , 45-H ) :   0.9816 B( 44-C , 46-H ) :   1.0797 
B( 44-C , 47-H ) :   1.0660 B( 48-C , 49-H ) :   1.0251 B( 48-C , 51-H ) :   1.0557 
B( 48-C , 52-H ) :   1.0341 B( 50-C , 53-C ) :   0.1834 B( 50-C , 54-H ) :   1.3972 
B( 50-C , 55-H ) :   0.8771 B( 50-C , 56-H ) :   0.9578 B( 50-C , 57-C ) :   0.6867 
B( 53-C , 57-C ) :   0.5474 B( 53-C , 58-H ) :   1.0274 B( 53-C , 59-H ) :   1.0569 
B( 53-C , 60-H ) :   1.0332 B( 54-H , 56-H ) :   0.1126 B( 61-C , 62-H ) :   1.0522 
B( 61-C , 63-H ) :   1.0241 B( 61-C , 64-H ) :   1.0382 B( 61-C , 65-C ) :   0.1468 
B( 65-C , 66-H ) :   1.0719 B( 65-C , 67-H ) :   0.9858 B( 65-C , 68-H ) :   1.0255 


-------
TIMINGS
-------

Total SCF time: 0 days 0 hours 11 min 50 sec 

Total time                  ....     710.091 sec
Sum of individual times     ....     706.120 sec  ( 99.4%)

Fock matrix formation       ....     676.372 sec  ( 95.3%)
  XC integration            ....      31.027 sec  (  4.6% of F)
    Basis function eval.    ....       5.270 sec  ( 17.0% of XC)
    Density eval.           ....      13.918 sec  ( 44.9% of XC)
    XC-Functional eval.     ....       0.141 sec  (  0.5% of XC)
    XC-Potential eval.      ....       8.685 sec  ( 28.0% of XC)
Diagonalization             ....       7.920 sec  (  1.1%)
Density matrix formation    ....       0.632 sec  (  0.1%)
Population analysis         ....       1.058 sec  (  0.1%)
Initial guess               ....       5.332 sec  (  0.8%)
Orbital Transformation      ....       0.000 sec  (  0.0%)
Orbital Orthonormalization  ....       0.000 sec  (  0.0%)
DIIS solution               ....      11.783 sec  (  1.7%)
Grid generation             ....       3.024 sec  (  0.4%)


           ************************************************************
           *        Program running with 24 parallel MPI-processes    *
           *              working on a common directory               *
           ************************************************************

------------------------------------------------------------------------------
                                ORCA  MP2 
------------------------------------------------------------------------------

Freezing NCore=68 chemical core electrons

-------------
RI-MP2 ENERGY
-------------
Dimension of the basis                    ... 1766
Memory devoted to MP2                     ... 5000 MB   
Data format for buffers                   ... DOUBLE
Compression type for matrix containers    ... UNCOMPRESSED
Scaling for aa/bb pairs                   ...   4.000e-01
Scaling for ab pairs                      ...   4.700e-01
Overall scaling of the MP2 energy         ...   1.000e+00
Calculating two index integrals           ... done (    0.130 sec)
Cholesky decomposition of V**-1           ... done (    2.029 sec)

-----------------
RI-TRANSFORMATION (AUX index driven)
-----------------

Dimension of the orbital-basis         ... 1766
Dimension of the aux-basis             ... 4317
Transformation of internal/external MOs...   34- 117 to  118-1765
Number Format for Storage              ... Double (8 Byte)
Integral mode                          ... Direct

First Phase: integral generation and transformation of MO indices
  Aux angular momentum 0               ... done (    1.752 sec)
  Aux angular momentum 1               ... done (    3.377 sec)
  Aux angular momentum 2               ... done (    4.337 sec)
  Aux angular momentum 3               ... done (    3.375 sec)
  Aux angular momentum 4               ... done (    1.102 sec)
  Aux angular momentum 5               ... done (    0.790 sec)
  Aux angular momentum 6               ... done (    0.940 sec)
Closing buffer VIA ( 4.45 GB; CompressionRatio= 1.00)
  Phase 1 completed in    15.973 sec
Second Phase: sorting and transformation of aux index

IA-Transformation
Memory available                       ... 4607 MB 
Max. # MO pairs treated in a batch     ... 4    
# of internal orbitals                 ... 84
# batches for internal orbitals        ... 1
Closing buffer IAV ( 0.21 GB; CompressionRatio= 1.00)
(ia|v) transformation done in     5.718 sec

  Phase 2 completed in    12.426 sec
RI-Integral transformation completed in    28.528 sec
Opening buffers                              ... done

Starting loop over batches of integrals:

Operator 0  - window                       ... ( 34-117)x(118-1765)
Operator 0  - Memory available             ...  5000 MB
Operator 0  - Memory needed per MO         ...  54.3 MB
Operator 0  - Number of orbitals per batch ... 4
Operator 0  - Number of batches            ... 1

OPERATOR  0   PASS   0:  MOs    34 ...   37 +   38 ...   41 +   42 ...   45 +   46 ...   49
                            +   50 ...   53 +   54 ...   57 +   58 ...   61 +   62 ...   65
                            +   66 ...   69 +   70 ...   73 +   74 ...   77 +   78 ...   81
                            +   82 ...   85 +   86 ...   89 +   90 ...   93 +   94 ...   97
                            +   98 ...  101 +  102 ...  105 +  106 ...  109 +  110 ...  113
                            +  114 ...  117
  Reading integrals       ... ok
  Internal MO  36
Time spent in pair loops =     4.593 sec
Deleting buffer (Ka|jb)[aa] ...done

-----------------------------------------------
 RI-MP2 CORRELATION ENERGY:     -2.719156884 Eh
-----------------------------------------------


-------
TIMINGS
-------

Total time                :  162.770 sec
Integral trafo            :   28.557 sec ( 17.5%)
I/O of integrals          :    0.299 sec (  0.2%)
K(i,j) Operators          :    3.670 sec (  2.3%)
T(i,j) pair energies      :    0.375 sec (  0.2%)
V-calculation             :    0.130 sec (  0.1%)
V**(-1/2)                 :    2.029 sec (  1.2%)
Gamma(ia|P)               :    0.000 sec (  0.0%)
Gamma-Trafo               :    0.000 sec (  0.0%)
D(virtual)                :    0.000 sec (  0.0%)
D(internal)               :    0.000 sec (  0.0%)
W(virtual)                :    0.000 sec (  0.0%)
W(internal)               :    0.000 sec (  0.0%)
L(virtual)                :    0.000 sec (  0.0%)
L(internal)               :    0.000 sec (  0.0%)
G(D)                      :    0.000 sec (  0.0%)
G(Z)                      :    0.000 sec (  0.0%)
Z-Vector Solution         :    0.000 sec (  0.0%)
Z-Vector Solution         :    0.000 sec (  0.0%)
3-Index Derivative 
+ Separable RIJ part      :    0.000 sec (  0.0%)
2-Index Derivative 
+ Separable RIJ part      :    0.000 sec (  0.0%)
Separable Gradient (X)    :    0.000 sec (  0.0%)


---------------------------------------
MP2 TOTAL ENERGY:    -1799.687073380 Eh
---------------------------------------


-------------------------------------------------------------------------------
                          DFT DISPERSION CORRECTION                            
                                                                               
                              DFTD3 V3.1  Rev 1                                
                          USING Becke-Johnson damping                          
-------------------------------------------------------------------------------
The DSD-BLYP/2013 functional is recognized
Active option DFTDOPT                   ...         4   

molecular C6(AA) [au] = 50197.659412 


            DFT-D V3
 parameters
 s6 scaling factor         :     0.5700 
 a1 scaling factor         :     0.0000 
 s8 scaling factor         :     0.0000 
 a2 scaling factor         :     5.4000 
 ad hoc parameters k1-k3   :    16.0000     1.3333    -4.0000 

 Edisp/kcal,au: -67.499456117574  -0.107567218835 
 E6   /kcal   : -67.499456118 
 E8   /kcal   :  -0.000000000 
 % E8         :   0.000000000 

-------------------------   ----------------
Dispersion correction           -0.107567219
-------------------------   ----------------


-------------------------   --------------------
FINAL SINGLE POINT ENERGY     -1799.794640598719
-------------------------   --------------------


                            ***************************************
                            *     ORCA property calculations      *
                            ***************************************


  WARNING: The energy has been calculated at the MP2 level but the densities
           used in the property calculations are still SCF densities
           MP2 response densities have not been calculated 
           use %mp2 Density relaxed end
           or  %mp2 Density unrelaxed end

                                    ---------------------
                                    Active property flags
                                    ---------------------
   (+) Dipole Moment


------------------------------------------------------------------------------
                       ORCA ELECTRIC PROPERTIES CALCULATION
------------------------------------------------------------------------------

Dipole Moment Calculation                       ... on
Quadrupole Moment Calculation                   ... off
Polarizability Calculation                      ... off
GBWName                                         ... MOR09_ed07.gbw
Electron density file                           ... MOR09_ed07.scfp
The origin for moment calculation is the CENTER OF MASS  = ( 0.024778,  0.027164 -0.048519)

-------------
DIPOLE MOMENT
-------------
                                X             Y             Z
Electronic contribution:     17.80566      16.05142     -19.86062
Nuclear contribution   :    -17.42159     -16.73751      21.91193
                        -----------------------------------------
Total Dipole Moment    :      0.38407      -0.68608       2.05131
                        -----------------------------------------
Magnitude (a.u.)       :      2.19683
Magnitude (Debye)      :      5.58390



--------------------
Rotational spectrum 
--------------------
 
Rotational constants in cm-1:     0.007992     0.003859     0.003786 
Rotational constants in MHz :   239.602072   115.683770   113.510152 

 Dipole components along the rotational axes: 
x,y,z [a.u.] :     0.385225    -0.514418     2.100726 
x,y,z [Debye]:     0.979165    -1.307545     5.339620 

 

Timings for individual modules:

Sum of individual times         ...      889.525 sec (=  14.825 min)
GTO integral calculation        ...       14.803 sec (=   0.247 min)   1.7 %
SCF iterations                  ...      710.672 sec (=  11.845 min)  79.9 %
MP2 module                      ...      164.050 sec (=   2.734 min)  18.4 %
                             ****ORCA TERMINATED NORMALLY****
TOTAL RUN TIME: 0 days 0 hours 14 minutes 50 seconds 549 msec
