
                                 *****************
                                 * O   R   C   A *
                                 *****************

           --- An Ab Initio, DFT and Semiempirical electronic structure package ---

                  #######################################################
                  #                        -***-                        #
                  #          Department of theory and spectroscopy      #
                  #               Directorship: Frank Neese             #
                  #        Max Planck Institute fuer Kohlenforschung    #
                  #                Kaiser Wilhelm Platz 1               #
                  #                 D-45470 Muelheim/Ruhr               #
                  #                      Germany                        #
                  #                                                     #
                  #                  All rights reserved                #
                  #                        -***-                        #
                  #######################################################


                         Program Version 4.2.0 -  RELEASE  -


 With contributions from (in alphabetic order):
   Daniel Aravena         : Magnetic Suceptibility
   Michael Atanasov       : Ab Initio Ligand Field Theory (pilot matlab implementation)
   Alexander A. Auer      : GIAO ZORA, VPT2
   Ute Becker             : Parallelization
   Giovanni Bistoni       : ED, misc. LED, open-shell LED, HFLED
   Martin Brehm           : Molecular dynamics
   Dmytro Bykov           : SCF Hessian
   Vijay G. Chilkuri      : MRCI spin determinant printing, contributions to CSF-ICE
   Dipayan Datta          : RHF DLPNO-CCSD density
   Achintya Kumar Dutta   : EOM-CC, STEOM-CC
   Dmitry Ganyushin       : Spin-Orbit,Spin-Spin,Magnetic field MRCI
   Miquel Garcia          : C-PCM Hessian, Gaussian charge scheme
   Yang Guo               : DLPNO-NEVPT2, CIM, IAO-localization
   Andreas Hansen         : Spin unrestricted coupled pair/coupled cluster methods
   Benjamin Helmich-Paris : CASSCF linear response (MC-RPA)
   Lee Huntington         : MR-EOM, pCC
   Robert Izsak           : Overlap fitted RIJCOSX, COSX-SCS-MP3, EOM
   Christian Kollmar      : KDIIS, OOCD, Brueckner-CCSD(T), CCSD density
   Simone Kossmann        : Meta GGA functionals, TD-DFT gradient, OOMP2, MP2 Hessian
   Martin Krupicka        : AUTO-CI
   Lucas Lang             : DCDCAS
   Dagmar Lenk            : GEPOL surface, SMD
   Dimitrios Liakos       : Extrapolation schemes; Compound Job, initial MDCI parallelization
   Dimitrios Manganas     : Further ROCIS development; embedding schemes
   Dimitrios Pantazis     : SARC Basis sets
   Taras Petrenko         : DFT Hessian,TD-DFT gradient, ASA, ECA, R-Raman, ABS, FL, XAS/XES, NRVS
   Peter Pinski           : DLPNO-MP2, DLPNO-MP2 Gradient
   Christoph Reimann      : Effective Core Potentials
   Marius Retegan         : Local ZFS, SOC
   Christoph Riplinger    : Optimizer, TS searches, QM/MM, DLPNO-CCSD(T), (RO)-DLPNO pert. Triples
   Tobias Risthaus        : Range-separated hybrids, TD-DFT gradient, RPA, STAB
   Michael Roemelt        : Original ROCIS implementation
   Masaaki Saitow         : Open-shell DLPNO-CCSD energy and density
   Barbara Sandhoefer     : DKH picture change effects
   Avijit Sen             : IP-ROCIS
   Kantharuban Sivalingam : CASSCF convergence, NEVPT2, FIC-MRCI
   Bernardo de Souza      : ESD, SOC TD-DFT
   Georgi Stoychev        : AutoAux, RI-MP2 NMR
   Willem Van den Heuvel  : Paramagnetic NMR
   Boris Wezisla          : Elementary symmetry handling
   Frank Wennmohs         : Technical directorship


 We gratefully acknowledge several colleagues who have allowed us to
 interface, adapt or use parts of their codes:
   Stefan Grimme, W. Hujo, H. Kruse,             : VdW corrections, initial TS optimization,
                  C. Bannwarth                     DFT functionals, gCP, sTDA/sTD-DF
   Ed Valeev, F. Pavosevic, A. Kumar             : LibInt (2-el integral package), F12 methods
   Garnet Chan, S. Sharma, J. Yang, R. Olivares  : DMRG
   Ulf Ekstrom                                   : XCFun DFT Library
   Mihaly Kallay                                 : mrcc  (arbitrary order and MRCC methods)
   Andreas Klamt, Michael Diedenhofen            : otool_cosmo (COSMO solvation model)
   Jiri Pittner, Ondrej Demel                    : Mk-CCSD
   Frank Weinhold                                : gennbo (NPA and NBO analysis)
   Christopher J. Cramer and Donald G. Truhlar   : smd solvation model
   Lars Goerigk                                  : TD-DFT with DH, B97 family of functionals
   V. Asgeirsson, H. Jonsson                     : NEB implementation
   FAccTs GmbH                                   : IRC, NEB, NEB-TS, Multilevel, MM, QM/MM, CI optimization
   S Lehtola, MJT Oliveira, MAL Marques          : LibXC Library


 Your calculation uses the libint2 library for the computation of 2-el integrals
 For citations please refer to: http://libint.valeyev.net

 Your ORCA version has been built with support for libXC version: 4.2.3
 For citations please refer to: https://tddft.org/programs/libxc/

 This ORCA versions uses:
   CBLAS   interface :  Fast vector & matrix operations
   LAPACKE interface :  Fast linear algebra routines
   SCALAPACK package :  Parallel linear algebra routines


Your calculation utilizes the atom-pairwise dispersion correction
with the Becke-Johnson damping scheme (D3BJ)
Cite in your paper:
S.Grimme, S.Ehrlich, L.Goerigk, J Comput Chem, (2011), 32, 1456–1465 
S.Grimme, J.Antony, S.Ehrlich and H.Krieg, J.Chem.Phys., 132, (2010), 154104 
   

----- Orbital basis set information -----
Your calculation utilizes the basis: def2-TZVPPD
   F. Weigend and R. Ahlrichs, Phys. Chem. Chem. Phys. 7, 3297 (2005).
   D. Rappoport and F. Furche, J. Chem. Phys. 133 134105 (2010).

----- AuxC basis set information -----
Your calculation utilizes the auxiliary basis: def2-TZVPPD/C
   A. Hellweg, C. Hattig, S. Hofener and W. Klopper, Theor. Chem. Acc. 117, 587 (2007).

----- AuxJK basis set information -----
Your calculation utilizes the auxiliary basis: def2/JK
   H-Ba, Hf-Rn: F. Weigend, J. Comput. Chem. 29, 167 (2008).

================================================================================
                                        WARNINGS
                       Please study these warnings very carefully!
================================================================================


WARNING: No MP2 level density has been requested!
         To caclulate MP2 level properties use
         %mp2 Density relaxed end
         or
         %mp2 Density unrelaxed end
         Otherwise for double-hybrid DFT only the energy is correct!

WARNING: There are different parametrizations of Gershom Martin's DSD-DFs
         for use with and without D3(BJ)!
         You are using the D3(BJ) parametrized version,
         consistent with the 2013 article (S. Kozuch and J. M. L. Martin, JCC 2013, 34, 2327)

WARNING: The frozen-core approximation is turned on by default for 
         the MP2 part of double-hybrid DFT.

INFO   : the flag for use of LIBINT has been found!

================================================================================
                                       INPUT FILE
================================================================================
NAME = MOR03_c2h4.in
|  1> #
|  2> # MOR03_c2h4 ri-DSD-BLYP/2013-D3BJ/Def2-TZVPPD
|  3> #
|  4> ! rijk ri-dsd-blyp/2013 d3bj def2-tzvppd def2/jk def2-tzvppd/c grid4 nofinalgrid
|  5> 
|  6> *xyz 0 1
|  7> C        0.000000    0.665348   -0.000001 
|  8> C        0.000000   -0.665348   -0.000001 
|  9> H       -0.924311    1.237390    0.000003 
| 10> H        0.924311    1.237390    0.000003 
| 11> H        0.924311   -1.237390    0.000003 
| 12> H       -0.924311   -1.237390    0.000003 
| 13> *
| 14> 
| 15> %maxcore 5000
| 16> 
| 17> %pal
| 18> nprocs = 24
| 19> end
| 20> 
| 21> 
| 22>                          ****END OF INPUT****
================================================================================

                       ****************************
                       * Single Point Calculation *
                       ****************************

---------------------------------
CARTESIAN COORDINATES (ANGSTROEM)
---------------------------------
  C      0.000000    0.665348   -0.000001
  C      0.000000   -0.665348   -0.000001
  H     -0.924311    1.237390    0.000003
  H      0.924311    1.237390    0.000003
  H      0.924311   -1.237390    0.000003
  H     -0.924311   -1.237390    0.000003

----------------------------
CARTESIAN COORDINATES (A.U.)
----------------------------
  NO LB      ZA    FRAG     MASS         X           Y           Z
   0 C     6.0000    0    12.011    0.000000    1.257326   -0.000002
   1 C     6.0000    0    12.011    0.000000   -1.257326   -0.000002
   2 H     1.0000    0     1.008   -1.746695    2.338328    0.000006
   3 H     1.0000    0     1.008    1.746695    2.338328    0.000006
   4 H     1.0000    0     1.008    1.746695   -2.338328    0.000006
   5 H     1.0000    0     1.008   -1.746695   -2.338328    0.000006

--------------------------------
INTERNAL COORDINATES (ANGSTROEM)
--------------------------------
 C      0   0   0     0.000000000000     0.00000000     0.00000000
 C      1   0   0     1.330696000000     0.00000000     0.00000000
 H      1   2   0     1.087006381996   121.75273403     0.00000000
 H      1   2   3     1.087006381996   121.75273403   179.99950410
 H      2   1   3     1.087006381996   121.75273403   180.00049590
 H      2   1   3     1.087006381996   121.75273403     0.00000000

---------------------------
INTERNAL COORDINATES (A.U.)
---------------------------
 C      0   0   0     0.000000000000     0.00000000     0.00000000
 C      1   0   0     2.514651007504     0.00000000     0.00000000
 H      1   2   0     2.054144367798   121.75273403     0.00000000
 H      1   2   3     2.054144367798   121.75273403   179.99950410
 H      2   1   3     2.054144367798   121.75273403   180.00049590
 H      2   1   3     2.054144367798   121.75273403     0.00000000

---------------------
BASIS SET INFORMATION
---------------------
There are 2 groups of distinct atoms

 Group   1 Type C   : 12s6p3d1f contracted to 6s3p3d1f pattern {621111/411/111/1}
 Group   2 Type H   : 5s3p1d contracted to 3s3p1d pattern {311/111/1}

Atom   0C    basis set group =>   1
Atom   1C    basis set group =>   1
Atom   2H    basis set group =>   2
Atom   3H    basis set group =>   2
Atom   4H    basis set group =>   2
Atom   5H    basis set group =>   2
---------------------------------
AUXILIARY/C BASIS SET INFORMATION
---------------------------------
There are 2 groups of distinct atoms

 Group   1 Type C   : 9s7p6d4f1g contracted to 9s7p5d4f1g pattern {111111111/1111111/21111/1111/1}
 Group   2 Type H   : 5s4p3d1f contracted to 5s4p3d1f pattern {11111/1111/111/1}

Atom   0C    basis set group =>   1
Atom   1C    basis set group =>   1
Atom   2H    basis set group =>   2
Atom   3H    basis set group =>   2
Atom   4H    basis set group =>   2
Atom   5H    basis set group =>   2
----------------------------------
AUXILIARY/JK BASIS SET INFORMATION
----------------------------------
There are 2 groups of distinct atoms

 Group   1 Type C   : 14s10p6d2f1g contracted to 10s8p5d1f1g pattern {5111111111/31111111/21111/2/1}
 Group   2 Type H   : 4s2p2d contracted to 2s2p2d pattern {31/11/11}

Atom   0C    basis set group =>   1
Atom   1C    basis set group =>   1
Atom   2H    basis set group =>   2
Atom   3H    basis set group =>   2
Atom   4H    basis set group =>   2
Atom   5H    basis set group =>   2


           ************************************************************
           *        Program running with 24 parallel MPI-processes    *
           *              working on a common directory               *
           ************************************************************
------------------------------------------------------------------------------
                           ORCA GTO INTEGRAL CALCULATION
                           -- RI-GTO INTEGRALS CHOSEN --
------------------------------------------------------------------------------

                         BASIS SET STATISTICS AND STARTUP INFO

Gaussian basis set:
 # of primitive gaussian shells          ...   80
 # of primitive gaussian functions       ...  180
 # of contracted shells                  ...   54
 # of contracted basis functions         ...  142
 Highest angular momentum                ...    3
 Maximum contraction depth               ...    6
Auxiliary gaussian basis set:
 # of primitive gaussian shells          ...   98
 # of primitive gaussian functions       ...  274
 # of contracted shells                  ...   74
 # of contracted aux-basis functions     ...  222
 Highest angular momentum                ...    4
 Maximum contraction depth               ...    5
Ratio of auxiliary to basis functions    ...  1.56
Integral package used                  ... LIBINT
 One Electron integrals                  ... done
 Ordering auxiliary basis shells         ... done
 Integral threshhold             Thresh  ...  1.000e-10
 Primitive cut-off               TCut    ...  1.000e-11
 Pre-screening matrix                    ... done
 Shell pair data                         ... 
 Ordering of the shell pairs             ... done (   0.000 sec) 1484 of 1485 pairs
 Determination of significant pairs      ... done (   0.000 sec)
 Creation of shell pair data             ... done (   0.000 sec)
 Storage of shell pair data              ... done (   0.019 sec)
 Shell pair data done in (   0.020 sec)
 Computing two index integrals           ... done
 Cholesky decomposition of the V-matrix  ... done


Timings:
 Total evaluation time                   ...   0.172 sec (  0.003 min)
 One electron matrix time                ...   0.025 sec (  0.000 min) = 14.8%
 Schwartz matrix evaluation time         ...   0.103 sec (  0.002 min) = 59.9%
 Two index repulsion integral time       ...   0.001 sec (  0.000 min) =  0.5%
 Cholesky decomposition of V             ...   0.001 sec (  0.000 min) =  0.7%
 Three index repulsion integral time     ...   0.000 sec (  0.000 min) =  0.0%



           ************************************************************
           *        Program running with 24 parallel MPI-processes    *
           *              working on a common directory               *
           ************************************************************
-------------------------------------------------------------------------------
                                 ORCA SCF
-------------------------------------------------------------------------------

------------
SCF SETTINGS
------------
Hamiltonian:
 Density Functional     Method          .... DFT(GTOs)
 Exchange Functional    Exchange        .... B88
   X-Alpha parameter    XAlpha          ....  0.666667
   Becke's b parameter  XBeta           ....  0.004200
 Correlation Functional Correlation     .... LYP
 LDA part of GGA corr.  LDAOpt          .... VWN-5
 Gradients option       PostSCFGGA      .... off
 Hybrid DFT is turned on
   Fraction HF Exchange ScalHFX         ....  0.710000
   Scaling of DF-GGA-X  ScalDFX         ....  0.290000
   Scaling of DF-GGA-C  ScalDFC         ....  0.540000
   Scaling of DF-LDA-C  ScalLDAC        ....  0.540000
   Perturbative correction              ....  1.000000
   Density functional embedding theory  .... OFF
 RI-approximation to the Coulomb term is turned on
   Number of auxiliary basis functions  .... 222
   RI-JK (J+K treated both via RI)      .... on


General Settings:
 Integral files         IntName         .... MOR03_c2h4
 Hartree-Fock type      HFTyp           .... RHF
 Total Charge           Charge          ....    0
 Multiplicity           Mult            ....    1
 Number of Electrons    NEL             ....   16
 Basis Dimension        Dim             ....  142
 Nuclear Repulsion      ENuc            ....     33.3464005296 Eh

Convergence Acceleration:
 DIIS                   CNVDIIS         .... on
   Start iteration      DIISMaxIt       ....    12
   Startup error        DIISStart       ....  0.200000
   # of expansion vecs  DIISMaxEq       ....     5
   Bias factor          DIISBfac        ....   1.050
   Max. coefficient     DIISMaxC        ....  10.000
 Newton-Raphson         CNVNR           .... off
 SOSCF                  CNVSOSCF        .... on
   Start iteration      SOSCFMaxIt      ....   150
   Startup grad/error   SOSCFStart      ....  0.003300
 Level Shifting         CNVShift        .... on
   Level shift para.    LevelShift      ....    0.2500
   Turn off err/grad.   ShiftErr        ....    0.0010
 Zerner damping         CNVZerner       .... off
 Static damping         CNVDamp         .... on
   Fraction old density DampFac         ....    0.7000
   Max. Damping (<1)    DampMax         ....    0.9800
   Min. Damping (>=0)   DampMin         ....    0.0000
   Turn off err/grad.   DampErr         ....    0.1000
 Fernandez-Rico         CNVRico         .... off

SCF Procedure:
 Maximum # iterations   MaxIter         ....   125
 SCF integral mode      SCFMode         .... Direct
   Integral package                     .... LIBINT
 Reset frequency        DirectResetFreq ....    20
 Integral Threshold     Thresh          ....  1.000e-10 Eh
 Primitive CutOff       TCut            ....  1.000e-11 Eh

Convergence Tolerance:
 Convergence Check Mode ConvCheckMode   .... Total+1el-Energy
 Convergence forced     ConvForced      .... 0
 Energy Change          TolE            ....  1.000e-06 Eh
 1-El. energy change                    ....  1.000e-03 Eh
 Orbital Gradient       TolG            ....  5.000e-05
 Orbital Rotation angle TolX            ....  5.000e-05
 DIIS Error             TolErr          ....  1.000e-06


Diagonalization of the overlap matrix:
Smallest eigenvalue                        ... 1.182e-05
Time for diagonalization                   ...    0.004 sec
Threshold for overlap eigenvalues          ... 1.000e-08
Number of eigenvalues below threshold      ... 0
Time for construction of square roots      ...    0.002 sec
Total time needed                          ...    0.006 sec

-------------------
DFT GRID GENERATION
-------------------

General Integration Accuracy     IntAcc      ...  4.670
Radial Grid Type                 RadialGrid  ... Gauss-Chebyshev
Angular Grid (max. acc.)         AngularGrid ... Lebedev-302
Angular grid pruning method      GridPruning ... 3 (G Style)
Weight generation scheme         WeightScheme... Becke
Basis function cutoff            BFCut       ...    1.0000e-10
Integration weight cutoff        WCut        ...    1.0000e-14
Grids for H and He will be reduced by one unit

# of grid points (after initial pruning)     ...  26000 (   0.0 sec)
# of grid points (after weights+screening)   ...  25158 (   0.0 sec)
nearest neighbour list constructed           ...    0.0 sec
Grid point re-assignment to atoms done       ...    0.0 sec
Grid point division into batches done        ...    0.1 sec
Reduced shell lists constructed in    0.1 sec

Total number of grid points                  ...    25158
Total number of batches                      ...      396
Average number of points per batch           ...       63
Average number of grid points per atom       ...     4193
Average number of shells per batch           ...    47.06 (87.14%)
Average number of basis functions per batch  ...   127.06 (89.48%)
Average number of large shells per batch     ...    43.17 (91.74%)
Average number of large basis fcns per batch ...   116.94 (92.04%)
Average number of aux-shells per batch       ...    47.06 (63.59%)
Average number of aux functions per batch    ...   127.06 (57.23%)
Maximum spatial batch extension              ...   3.19,  3.11, 18.71 au
Average spatial batch extension              ...   0.08,  0.07,  0.16 au

Time for grid setup =    0.146 sec

------------------------------
INITIAL GUESS: MODEL POTENTIAL
------------------------------
Loading Hartree-Fock densities                     ... done
Calculating cut-offs                               ... done
Setting up the integral package                    ... done
Initializing the effective Hamiltonian             ... done
Starting the Coulomb interaction                   ... done (   0.0 sec)
Reading the grid                                   ... done
Mapping shells                                     ... done
Starting the XC term evaluation                    ... done (   0.0 sec)
  promolecular density results
     # of electrons  =     15.998056115
     EX              =    -11.420314884
     EC              =     -0.046267877
     EX+EC           =    -11.466582761
Transforming the Hamiltonian                       ... done (   0.0 sec)
Diagonalizing the Hamiltonian                      ... done (   0.0 sec)
Back transforming the eigenvectors                 ... done (   0.0 sec)
Now organizing SCF variables                       ... done
                      ------------------
                      INITIAL GUESS DONE (   0.2 sec)
                      ------------------
--------------
SCF ITERATIONS
--------------
ITER       Energy         Delta-E        Max-DP      RMS-DP      [F,P]     Damp
  0    -78.2373555666   0.000000000000 0.03312925  0.00094598  0.1843675 0.7000
  1    -78.1962290470   0.041126519672 0.02851397  0.00090648  0.1641573 0.7000
                               ***Turning on DIIS***
  2    -78.2160298164  -0.019800769406 0.05928609  0.00195420  0.0958256 0.0000
  3    -78.3050098065  -0.088979990094 0.00744995  0.00026854  0.1013697 0.7000
  4    -78.3329676475  -0.027957841074 0.02200945  0.00088266  0.0965663 0.0000
  5    -78.3335826556  -0.000615008071 0.00536949  0.00023692  0.0205525 0.0000
  6    -78.3345521390  -0.000969483383 0.00212213  0.00009814  0.0088989 0.0000
                      *** Initiating the SOSCF procedure ***
                           *** Shutting down DIIS ***
                      *** Re-Reading the Fockian *** 
                      *** Removing any level shift *** 
ITER      Energy       Delta-E        Grad      Rot      Max-DP    RMS-DP
  7    -78.33475105  -0.0001989098  0.000849  0.000849  0.000810  0.000037
  8    -78.33477818  -0.0000271309  0.000337  0.000576  0.000533  0.000023
  9    -78.33477971  -0.0000015303  0.000196  0.000167  0.000198  0.000007
                 **** Energy Check signals convergence ****
              ***Rediagonalizing the Fockian in SOSCF/NRSCF***

               *****************************************************
               *                     SUCCESS                       *
               *           SCF CONVERGED AFTER  10 CYCLES          *
               *****************************************************


----------------
TOTAL SCF ENERGY
----------------

Total Energy       :          -78.33478026 Eh           -2131.59774 eV

Components:
Nuclear Repulsion  :           33.34640053 Eh             907.40169 eV
Electronic Energy  :         -111.68118079 Eh           -3038.99943 eV
One Electron Energy:         -170.14766946 Eh           -4629.95347 eV
Two Electron Energy:           58.46648867 Eh            1590.95404 eV

Virial components:
Potential Energy   :         -156.35699491 Eh           -4254.69014 eV
Kinetic Energy     :           78.02221465 Eh            2123.09240 eV
Virial Ratio       :            2.00400611


DFT components:
N(Alpha)           :        8.000026745885 electrons
N(Beta)            :        8.000026745885 electrons
N(Total)           :       16.000053491769 electrons
E(X)               :       -3.406925048723 Eh       
E(C)               :       -0.268797322499 Eh       
E(XC)              :       -3.675722371222 Eh       
DFET-embed. en.    :        0.000000000000 Eh       

---------------
SCF CONVERGENCE
---------------

  Last Energy change         ...   -5.5471e-07  Tolerance :   1.0000e-06
  Last MAX-Density change    ...    3.8700e-05  Tolerance :   1.0000e-05
  Last RMS-Density change    ...    1.8225e-06  Tolerance :   1.0000e-06
  Last Orbital Gradient      ...    1.0183e-05  Tolerance :   5.0000e-05
  Last Orbital Rotation      ...    1.4608e-05  Tolerance :   5.0000e-05

             **** THE GBW FILE WAS UPDATED (MOR03_c2h4.gbw) ****
             **** DENSITY FILE WAS UPDATED (MOR03_c2h4.scfp) ****
             **** ENERGY FILE WAS UPDATED (MOR03_c2h4.en.tmp) ****
             **** THE GBW FILE WAS UPDATED (MOR03_c2h4.gbw) ****
             **** DENSITY FILE WAS UPDATED (MOR03_c2h4.scfp) ****
----------------
ORBITAL ENERGIES
----------------

  NO   OCC          E(Eh)            E(eV) 
   0   2.0000     -10.855222      -295.3856 
   1   2.0000     -10.853772      -295.3462 
   2   2.0000      -0.939212       -25.5573 
   3   2.0000      -0.719273       -19.5724 
   4   2.0000      -0.583561       -15.8795 
   5   2.0000      -0.532964       -14.5027 
   6   2.0000      -0.454926       -12.3792 
   7   2.0000      -0.345794        -9.4095 
   8   0.0000       0.058008         1.5785 
   9   0.0000       0.070809         1.9268 
  10   0.0000       0.080335         2.1860 
  11   0.0000       0.110327         3.0022 
  12   0.0000       0.148481         4.0404 
  13   0.0000       0.154751         4.2110 
  14   0.0000       0.172470         4.6932 
  15   0.0000       0.195944         5.3319 
  16   0.0000       0.206242         5.6121 
  17   0.0000       0.212384         5.7793 
  18   0.0000       0.236839         6.4447 
  19   0.0000       0.249042         6.7768 
  20   0.0000       0.267122         7.2688 
  21   0.0000       0.277515         7.5516 
  22   0.0000       0.300028         8.1642 
  23   0.0000       0.307333         8.3629 
  24   0.0000       0.336179         9.1479 
  25   0.0000       0.344389         9.3713 
  26   0.0000       0.353605         9.6221 
  27   0.0000       0.361043         9.8245 
  28   0.0000       0.417274        11.3546 
  29   0.0000       0.418843        11.3973 
  30   0.0000       0.421485        11.4692 
  31   0.0000       0.431146        11.7321 
  32   0.0000       0.441383        12.0107 
  33   0.0000       0.445748        12.1294 
  34   0.0000       0.448525        12.2050 
  35   0.0000       0.473248        12.8777 
  36   0.0000       0.491123        13.3641 
  37   0.0000       0.518954        14.1215 
  38   0.0000       0.530150        14.4261 
  39   0.0000       0.530765        14.4429 
  40   0.0000       0.546138        14.8612 
  41   0.0000       0.621064        16.9000 
  42   0.0000       0.625643        17.0246 
  43   0.0000       0.740786        20.1578 
  44   0.0000       0.765837        20.8395 
  45   0.0000       0.792835        21.5741 
  46   0.0000       0.820587        22.3293 
  47   0.0000       0.823870        22.4186 
  48   0.0000       0.826860        22.5000 
  49   0.0000       0.862944        23.4819 
  50   0.0000       0.893367        24.3098 
  51   0.0000       0.899773        24.4841 
  52   0.0000       0.988376        26.8951 
  53   0.0000       1.002116        27.2690 
  54   0.0000       1.060491        28.8574 
  55   0.0000       1.121833        30.5266 
  56   0.0000       1.131004        30.7762 
  57   0.0000       1.191759        32.4294 
  58   0.0000       1.226448        33.3733 
  59   0.0000       1.262403        34.3517 
  60   0.0000       1.264725        34.4149 
  61   0.0000       1.370538        37.2942 
  62   0.0000       1.405927        38.2572 
  63   0.0000       1.480515        40.2869 
  64   0.0000       1.507555        41.0227 
  65   0.0000       1.509718        41.0815 
  66   0.0000       1.581166        43.0257 
  67   0.0000       1.606110        43.7045 
  68   0.0000       1.615151        43.9505 
  69   0.0000       1.699151        46.2363 
  70   0.0000       1.755010        47.7563 
  71   0.0000       1.891258        51.4637 
  72   0.0000       1.897987        51.6468 
  73   0.0000       1.914570        52.0981 
  74   0.0000       1.947924        53.0057 
  75   0.0000       1.995050        54.2881 
  76   0.0000       2.261335        61.5341 
  77   0.0000       2.263912        61.6042 
  78   0.0000       2.316030        63.0224 
  79   0.0000       2.414865        65.7118 
  80   0.0000       2.711216        73.7759 
  81   0.0000       2.787933        75.8635 
  82   0.0000       2.907190        79.1087 
  83   0.0000       2.982775        81.1654 
  84   0.0000       2.989228        81.3410 
  85   0.0000       2.993942        81.4693 
  86   0.0000       3.000341        81.6434 
  87   0.0000       3.026615        82.3584 
  88   0.0000       3.042738        82.7971 
  89   0.0000       3.084811        83.9420 
  90   0.0000       3.123482        84.9943 
  91   0.0000       3.133115        85.2564 
  92   0.0000       3.181521        86.5736 
  93   0.0000       3.288402        89.4820 
  94   0.0000       3.361056        91.4590 
  95   0.0000       3.381565        92.0171 
  96   0.0000       3.409706        92.7828 
  97   0.0000       3.462317        94.2144 
  98   0.0000       3.511656        95.5570 
  99   0.0000       3.563889        96.9783 
 100   0.0000       3.637083        98.9701 
 101   0.0000       3.656780        99.5060 
 102   0.0000       3.687261       100.3355 
 103   0.0000       3.777072       102.7794 
 104   0.0000       3.877474       105.5114 
 105   0.0000       3.892908       105.9314 
 106   0.0000       3.894343       105.9705 
 107   0.0000       3.910903       106.4211 
 108   0.0000       3.923709       106.7695 
 109   0.0000       3.965807       107.9151 
 110   0.0000       4.068177       110.7007 
 111   0.0000       4.135672       112.5374 
 112   0.0000       4.166227       113.3688 
 113   0.0000       4.191414       114.0542 
 114   0.0000       4.224041       114.9420 
 115   0.0000       4.264160       116.0337 
 116   0.0000       4.271071       116.2218 
 117   0.0000       4.402096       119.7871 
 118   0.0000       4.413188       120.0889 
 119   0.0000       4.478641       121.8700 
 120   0.0000       4.578704       124.5929 
 121   0.0000       4.616783       125.6291 
 122   0.0000       4.725620       128.5907 
 123   0.0000       4.784552       130.1943 
 124   0.0000       4.856732       132.1584 
 125   0.0000       4.891341       133.1002 
 126   0.0000       4.914390       133.7274 
 127   0.0000       5.093980       138.6142 
 128   0.0000       5.231037       142.3438 
 129   0.0000       5.231290       142.3506 
 130   0.0000       5.282048       143.7318 
 131   0.0000       5.368574       146.0863 
 132   0.0000       5.388269       146.6222 
 133   0.0000       5.600893       152.4080 
 134   0.0000       5.623980       153.0363 
 135   0.0000       5.708839       155.3454 
 136   0.0000       5.751902       156.5172 
 137   0.0000       6.101356       166.0263 
 138   0.0000       6.163174       167.7085 
 139   0.0000       6.691102       182.0741 
 140   0.0000      23.856566       649.1702 
 141   0.0000      24.454450       665.4394 

                    ********************************
                    * MULLIKEN POPULATION ANALYSIS *
                    ********************************

-----------------------
MULLIKEN ATOMIC CHARGES
-----------------------
   0 C :   -0.058057
   1 C :   -0.058046
   2 H :    0.029023
   3 H :    0.029030
   4 H :    0.029028
   5 H :    0.029022
Sum of atomic charges:    0.0000000

--------------------------------
MULLIKEN REDUCED ORBITAL CHARGES
--------------------------------
  0 C s       :     3.155563  s :     3.155563
      pz      :     0.929921  p :     2.846479
      px      :     0.965354
      py      :     0.951204
      dz2     :     0.002390  d :     0.050687
      dxz     :     0.000000
      dyz     :     0.021743
      dx2y2   :     0.016617
      dxy     :     0.009937
      f0      :     0.000974  f :     0.005329
      f+1     :     0.000650
      f-1     :     0.000553
      f+2     :     0.000858
      f-2     :     0.000000
      f+3     :     0.001240
      f-3     :     0.001054
  1 C s       :     3.155546  s :     3.155546
      pz      :     0.929921  p :     2.846485
      px      :     0.965355
      py      :     0.951209
      dz2     :     0.002390  d :     0.050687
      dxz     :     0.000000
      dyz     :     0.021743
      dx2y2   :     0.016617
      dxy     :     0.009937
      f0      :     0.000974  f :     0.005329
      f+1     :     0.000650
      f-1     :     0.000553
      f+2     :     0.000858
      f-2     :     0.000000
      f+3     :     0.001240
      f-3     :     0.001054
  2 H s       :     0.934142  s :     0.934142
      pz      :     0.022678  p :     0.034952
      px      :     0.004174
      py      :     0.008100
      dz2     :     0.000152  d :     0.001883
      dxz     :     0.000332
      dyz     :     0.000242
      dx2y2   :     0.000656
      dxy     :     0.000500
  3 H s       :     0.934135  s :     0.934135
      pz      :     0.022678  p :     0.034951
      px      :     0.004173
      py      :     0.008101
      dz2     :     0.000152  d :     0.001883
      dxz     :     0.000332
      dyz     :     0.000242
      dx2y2   :     0.000656
      dxy     :     0.000500
  4 H s       :     0.934135  s :     0.934135
      pz      :     0.022678  p :     0.034953
      px      :     0.004174
      py      :     0.008101
      dz2     :     0.000152  d :     0.001883
      dxz     :     0.000332
      dyz     :     0.000242
      dx2y2   :     0.000656
      dxy     :     0.000500
  5 H s       :     0.934142  s :     0.934142
      pz      :     0.022678  p :     0.034953
      px      :     0.004174
      py      :     0.008101
      dz2     :     0.000152  d :     0.001883
      dxz     :     0.000332
      dyz     :     0.000242
      dx2y2   :     0.000656
      dxy     :     0.000500


                     *******************************
                     * LOEWDIN POPULATION ANALYSIS *
                     *******************************

----------------------
LOEWDIN ATOMIC CHARGES
----------------------
   0 C :    0.103108
   1 C :    0.103108
   2 H :   -0.051554
   3 H :   -0.051554
   4 H :   -0.051554
   5 H :   -0.051554

-------------------------------
LOEWDIN REDUCED ORBITAL CHARGES
-------------------------------
  0 C s       :     2.718679  s :     2.718679
      pz      :     0.745791  p :     2.694171
      px      :     0.939403
      py      :     1.008977
      dz2     :     0.041090  d :     0.455223
      dxz     :     0.000000
      dyz     :     0.063528
      dx2y2   :     0.111328
      dxy     :     0.239277
      f0      :     0.000988  f :     0.028820
      f+1     :     0.002308
      f-1     :     0.003474
      f+2     :     0.004996
      f-2     :     0.000000
      f+3     :     0.009108
      f-3     :     0.007947
  1 C s       :     2.718679  s :     2.718679
      pz      :     0.745791  p :     2.694171
      px      :     0.939403
      py      :     1.008977
      dz2     :     0.041090  d :     0.455223
      dxz     :     0.000000
      dyz     :     0.063528
      dx2y2   :     0.111328
      dxy     :     0.239277
      f0      :     0.000988  f :     0.028820
      f+1     :     0.002308
      f-1     :     0.003474
      f+2     :     0.004996
      f-2     :     0.000000
      f+3     :     0.009108
      f-3     :     0.007947
  2 H s       :     0.734432  s :     0.734432
      pz      :     0.084612  p :     0.289632
      px      :     0.123218
      py      :     0.081802
      dz2     :     0.002578  d :     0.027490
      dxz     :     0.005270
      dyz     :     0.002466
      dx2y2   :     0.008971
      dxy     :     0.008205
  3 H s       :     0.734432  s :     0.734432
      pz      :     0.084612  p :     0.289632
      px      :     0.123218
      py      :     0.081802
      dz2     :     0.002578  d :     0.027490
      dxz     :     0.005270
      dyz     :     0.002466
      dx2y2   :     0.008971
      dxy     :     0.008205
  4 H s       :     0.734432  s :     0.734432
      pz      :     0.084612  p :     0.289632
      px      :     0.123218
      py      :     0.081802
      dz2     :     0.002578  d :     0.027490
      dxz     :     0.005270
      dyz     :     0.002466
      dx2y2   :     0.008971
      dxy     :     0.008205
  5 H s       :     0.734432  s :     0.734432
      pz      :     0.084612  p :     0.289632
      px      :     0.123218
      py      :     0.081802
      dz2     :     0.002578  d :     0.027490
      dxz     :     0.005270
      dyz     :     0.002466
      dx2y2   :     0.008971
      dxy     :     0.008205


                      *****************************
                      * MAYER POPULATION ANALYSIS *
                      *****************************

  NA   - Mulliken gross atomic population
  ZA   - Total nuclear charge
  QA   - Mulliken gross atomic charge
  VA   - Mayer's total valence
  BVA  - Mayer's bonded valence
  FA   - Mayer's free valence

  ATOM       NA         ZA         QA         VA         BVA        FA
  0 C      6.0581     6.0000    -0.0581     3.8517     3.8517     0.0000
  1 C      6.0580     6.0000    -0.0580     3.8517     3.8517     0.0000
  2 H      0.9710     1.0000     0.0290     0.9799     0.9799     0.0000
  3 H      0.9710     1.0000     0.0290     0.9799     0.9799     0.0000
  4 H      0.9710     1.0000     0.0290     0.9799     0.9799     0.0000
  5 H      0.9710     1.0000     0.0290     0.9799     0.9799     0.0000

  Mayer bond orders larger than 0.100000
B(  0-C ,  1-C ) :   1.8319 B(  0-C ,  2-H ) :   1.0181 B(  0-C ,  3-H ) :   1.0180 
B(  1-C ,  4-H ) :   1.0180 B(  1-C ,  5-H ) :   1.0181 

-------
TIMINGS
-------

Total SCF time: 0 days 0 hours 0 min 1 sec 

Total time                  ....       1.665 sec
Sum of individual times     ....       1.565 sec  ( 94.0%)

Fock matrix formation       ....       1.284 sec  ( 77.1%)
  XC integration            ....       0.302 sec  ( 23.5% of F)
    Basis function eval.    ....       0.042 sec  ( 13.9% of XC)
    Density eval.           ....       0.029 sec  (  9.5% of XC)
    XC-Functional eval.     ....       0.010 sec  (  3.3% of XC)
    XC-Potential eval.      ....       0.058 sec  ( 19.2% of XC)
Diagonalization             ....       0.022 sec  (  1.3%)
Density matrix formation    ....       0.004 sec  (  0.2%)
Population analysis         ....       0.004 sec  (  0.3%)
Initial guess               ....       0.092 sec  (  5.5%)
Orbital Transformation      ....       0.000 sec  (  0.0%)
Orbital Orthonormalization  ....       0.000 sec  (  0.0%)
DIIS solution               ....       0.008 sec  (  0.5%)
SOSCF solution              ....       0.004 sec  (  0.2%)
Grid generation             ....       0.146 sec  (  8.8%)


           ************************************************************
           *        Program running with 24 parallel MPI-processes    *
           *              working on a common directory               *
           ************************************************************

------------------------------------------------------------------------------
                                ORCA  MP2 
------------------------------------------------------------------------------

Freezing NCore=4 chemical core electrons

-------------
RI-MP2 ENERGY
-------------
Dimension of the basis                    ...  142
Memory devoted to MP2                     ... 5000 MB   
Data format for buffers                   ... DOUBLE
Compression type for matrix containers    ... UNCOMPRESSED
Scaling for aa/bb pairs                   ...   4.000e-01
Scaling for ab pairs                      ...   4.700e-01
Overall scaling of the MP2 energy         ...   1.000e+00
Calculating two index integrals           ... done (    0.001 sec)
Cholesky decomposition of V**-1           ... done (    0.062 sec)

-----------------
RI-TRANSFORMATION (AUX index driven)
-----------------

Dimension of the orbital-basis         ... 142
Dimension of the aux-basis             ... 340
Transformation of internal/external MOs...    2-   7 to    8- 141
Number Format for Storage              ... Double (8 Byte)
Integral mode                          ... Direct

First Phase: integral generation and transformation of MO indices
  Aux angular momentum 0               ... done (    0.001 sec)
  Aux angular momentum 1               ... done (    0.002 sec)
  Aux angular momentum 2               ... done (    0.001 sec)
  Aux angular momentum 3               ... done (    0.002 sec)
  Aux angular momentum 4               ... done (    0.002 sec)
Closing buffer VIA ( 0.00 GB; CompressionRatio= 1.00)
  Phase 1 completed in     0.085 sec
Second Phase: sorting and transformation of aux index

IA-Transformation
Memory available                       ... 4998 MB 
Max. # MO pairs treated in a batch     ... 1    
# of internal orbitals                 ... 6
# batches for internal orbitals        ... 1
Closing buffer IAV ( 0.00 GB; CompressionRatio= 1.00)
(ia|v) transformation done in     0.003 sec

  Phase 2 completed in     0.006 sec
RI-Integral transformation completed in     0.092 sec
Opening buffers                              ... done

Starting loop over batches of integrals:

Operator 0  - window                       ... (  2-  7)x(  8-141)
Operator 0  - Memory available             ...  5000 MB
Operator 0  - Memory needed per MO         ...   0.3 MB
Operator 0  - Number of orbitals per batch ... 1
Operator 0  - Number of batches            ... 1

OPERATOR  0   PASS   0:  MOs     2 ...    2 +    3 ...    3 +    4 ...    4 +    5 ...    5
                            +    6 ...    6 +    7 ...    7
  Reading integrals       ... ok
Time spent in pair loops =     0.002 sec
Deleting buffer (Ka|jb)[aa] ...done

-----------------------------------------------
 RI-MP2 CORRELATION ENERGY:     -0.171585932 Eh
-----------------------------------------------


-------
TIMINGS
-------

Total time                :    0.176 sec
Integral trafo            :    0.108 sec ( 61.3%)
I/O of integrals          :    0.000 sec (  0.1%)
K(i,j) Operators          :    0.000 sec (  0.1%)
T(i,j) pair energies      :    0.000 sec (  0.1%)
V-calculation             :    0.001 sec (  0.8%)
V**(-1/2)                 :    0.062 sec ( 35.1%)
Gamma(ia|P)               :    0.000 sec (  0.0%)
Gamma-Trafo               :    0.000 sec (  0.0%)
D(virtual)                :    0.000 sec (  0.0%)
D(internal)               :    0.000 sec (  0.0%)
W(virtual)                :    0.000 sec (  0.0%)
W(internal)               :    0.000 sec (  0.0%)
L(virtual)                :    0.000 sec (  0.0%)
L(internal)               :    0.000 sec (  0.0%)
G(D)                      :    0.000 sec (  0.0%)
G(Z)                      :    0.000 sec (  0.0%)
Z-Vector Solution         :    0.000 sec (  0.0%)
Z-Vector Solution         :    0.000 sec (  0.0%)
3-Index Derivative 
+ Separable RIJ part      :    0.000 sec (  0.0%)
2-Index Derivative 
+ Separable RIJ part      :    0.000 sec (  0.0%)
Separable Gradient (X)    :    0.000 sec (  0.0%)


---------------------------------------
MP2 TOTAL ENERGY:      -78.506366197 Eh
---------------------------------------


-------------------------------------------------------------------------------
                          DFT DISPERSION CORRECTION                            
                                                                               
                              DFTD3 V3.1  Rev 1                                
                          USING Becke-Johnson damping                          
-------------------------------------------------------------------------------
The DSD-BLYP/2013 functional is recognized
Active option DFTDOPT                   ...         4   

molecular C6(AA) [au] = 294.501244 


            DFT-D V3
 parameters
 s6 scaling factor         :     0.5700 
 a1 scaling factor         :     0.0000 
 s8 scaling factor         :     0.0000 
 a2 scaling factor         :     5.4000 
 ad hoc parameters k1-k3   :    16.0000     1.3333    -4.0000 

 Edisp/kcal,au: -1.499384036775  -0.002389420302 
 E6   /kcal   :  -1.499384037 
 E8   /kcal   :  -0.000000000 
 % E8         :   0.000000000 

-------------------------   ----------------
Dispersion correction           -0.002389420
-------------------------   ----------------


-------------------------   --------------------
FINAL SINGLE POINT ENERGY       -78.508755617366
-------------------------   --------------------


                            ***************************************
                            *     ORCA property calculations      *
                            ***************************************


  WARNING: The energy has been calculated at the MP2 level but the densities
           used in the property calculations are still SCF densities
           MP2 response densities have not been calculated 
           use %mp2 Density relaxed end
           or  %mp2 Density unrelaxed end

                                    ---------------------
                                    Active property flags
                                    ---------------------
   (+) Dipole Moment


------------------------------------------------------------------------------
                       ORCA ELECTRIC PROPERTIES CALCULATION
------------------------------------------------------------------------------

Dipole Moment Calculation                       ... on
Quadrupole Moment Calculation                   ... off
Polarizability Calculation                      ... off
GBWName                                         ... MOR03_c2h4.gbw
Electron density file                           ... MOR03_c2h4.scfp
The origin for moment calculation is the CENTER OF MASS  = ( 0.000000,  0.000000 -0.000001)

-------------
DIPOLE MOMENT
-------------
                                X             Y             Z
Electronic contribution:      0.00000       0.00000      -0.00001
Nuclear contribution   :      0.00000       0.00000       0.00001
                        -----------------------------------------
Total Dipole Moment    :      0.00000       0.00000       0.00000
                        -----------------------------------------
Magnitude (a.u.)       :      0.00000
Magnitude (Debye)      :      0.00001



--------------------
Rotational spectrum 
--------------------
 
Rotational constants in cm-1:     4.893731     1.002967     0.832372 
Rotational constants in MHz : 146710.378489 30068.182911 24953.899728 

 Dipole components along the rotational axes: 
x,y,z [a.u.] :     0.000000     0.000000     0.000005 
x,y,z [Debye]:     0.000000     0.000000     0.000012 

 

Timings for individual modules:

Sum of individual times         ...        3.355 sec (=   0.056 min)
GTO integral calculation        ...        0.554 sec (=   0.009 min)  16.5 %
SCF iterations                  ...        1.989 sec (=   0.033 min)  59.3 %
MP2 module                      ...        0.812 sec (=   0.014 min)  24.2 %
                             ****ORCA TERMINATED NORMALLY****
TOTAL RUN TIME: 0 days 0 hours 0 minutes 3 seconds 852 msec
