
                                 *****************
                                 * O   R   C   A *
                                 *****************

           --- An Ab Initio, DFT and Semiempirical electronic structure package ---

                  #######################################################
                  #                        -***-                        #
                  #          Department of theory and spectroscopy      #
                  #               Directorship: Frank Neese             #
                  #        Max Planck Institute fuer Kohlenforschung    #
                  #                Kaiser Wilhelm Platz 1               #
                  #                 D-45470 Muelheim/Ruhr               #
                  #                      Germany                        #
                  #                                                     #
                  #                  All rights reserved                #
                  #                        -***-                        #
                  #######################################################


                         Program Version 4.2.0 -  RELEASE  -


 With contributions from (in alphabetic order):
   Daniel Aravena         : Magnetic Suceptibility
   Michael Atanasov       : Ab Initio Ligand Field Theory (pilot matlab implementation)
   Alexander A. Auer      : GIAO ZORA, VPT2
   Ute Becker             : Parallelization
   Giovanni Bistoni       : ED, misc. LED, open-shell LED, HFLED
   Martin Brehm           : Molecular dynamics
   Dmytro Bykov           : SCF Hessian
   Vijay G. Chilkuri      : MRCI spin determinant printing, contributions to CSF-ICE
   Dipayan Datta          : RHF DLPNO-CCSD density
   Achintya Kumar Dutta   : EOM-CC, STEOM-CC
   Dmitry Ganyushin       : Spin-Orbit,Spin-Spin,Magnetic field MRCI
   Miquel Garcia          : C-PCM Hessian, Gaussian charge scheme
   Yang Guo               : DLPNO-NEVPT2, CIM, IAO-localization
   Andreas Hansen         : Spin unrestricted coupled pair/coupled cluster methods
   Benjamin Helmich-Paris : CASSCF linear response (MC-RPA)
   Lee Huntington         : MR-EOM, pCC
   Robert Izsak           : Overlap fitted RIJCOSX, COSX-SCS-MP3, EOM
   Christian Kollmar      : KDIIS, OOCD, Brueckner-CCSD(T), CCSD density
   Simone Kossmann        : Meta GGA functionals, TD-DFT gradient, OOMP2, MP2 Hessian
   Martin Krupicka        : AUTO-CI
   Lucas Lang             : DCDCAS
   Dagmar Lenk            : GEPOL surface, SMD
   Dimitrios Liakos       : Extrapolation schemes; Compound Job, initial MDCI parallelization
   Dimitrios Manganas     : Further ROCIS development; embedding schemes
   Dimitrios Pantazis     : SARC Basis sets
   Taras Petrenko         : DFT Hessian,TD-DFT gradient, ASA, ECA, R-Raman, ABS, FL, XAS/XES, NRVS
   Peter Pinski           : DLPNO-MP2, DLPNO-MP2 Gradient
   Christoph Reimann      : Effective Core Potentials
   Marius Retegan         : Local ZFS, SOC
   Christoph Riplinger    : Optimizer, TS searches, QM/MM, DLPNO-CCSD(T), (RO)-DLPNO pert. Triples
   Tobias Risthaus        : Range-separated hybrids, TD-DFT gradient, RPA, STAB
   Michael Roemelt        : Original ROCIS implementation
   Masaaki Saitow         : Open-shell DLPNO-CCSD energy and density
   Barbara Sandhoefer     : DKH picture change effects
   Avijit Sen             : IP-ROCIS
   Kantharuban Sivalingam : CASSCF convergence, NEVPT2, FIC-MRCI
   Bernardo de Souza      : ESD, SOC TD-DFT
   Georgi Stoychev        : AutoAux, RI-MP2 NMR
   Willem Van den Heuvel  : Paramagnetic NMR
   Boris Wezisla          : Elementary symmetry handling
   Frank Wennmohs         : Technical directorship


 We gratefully acknowledge several colleagues who have allowed us to
 interface, adapt or use parts of their codes:
   Stefan Grimme, W. Hujo, H. Kruse,             : VdW corrections, initial TS optimization,
                  C. Bannwarth                     DFT functionals, gCP, sTDA/sTD-DF
   Ed Valeev, F. Pavosevic, A. Kumar             : LibInt (2-el integral package), F12 methods
   Garnet Chan, S. Sharma, J. Yang, R. Olivares  : DMRG
   Ulf Ekstrom                                   : XCFun DFT Library
   Mihaly Kallay                                 : mrcc  (arbitrary order and MRCC methods)
   Andreas Klamt, Michael Diedenhofen            : otool_cosmo (COSMO solvation model)
   Jiri Pittner, Ondrej Demel                    : Mk-CCSD
   Frank Weinhold                                : gennbo (NPA and NBO analysis)
   Christopher J. Cramer and Donald G. Truhlar   : smd solvation model
   Lars Goerigk                                  : TD-DFT with DH, B97 family of functionals
   V. Asgeirsson, H. Jonsson                     : NEB implementation
   FAccTs GmbH                                   : IRC, NEB, NEB-TS, Multilevel, MM, QM/MM, CI optimization
   S Lehtola, MJT Oliveira, MAL Marques          : LibXC Library


 Your calculation uses the libint2 library for the computation of 2-el integrals
 For citations please refer to: http://libint.valeyev.net

 Your ORCA version has been built with support for libXC version: 4.2.3
 For citations please refer to: https://tddft.org/programs/libxc/

 This ORCA versions uses:
   CBLAS   interface :  Fast vector & matrix operations
   LAPACKE interface :  Fast linear algebra routines
   SCALAPACK package :  Parallel linear algebra routines


Your calculation utilizes the atom-pairwise dispersion correction
with the Becke-Johnson damping scheme (D3BJ)
Cite in your paper:
S.Grimme, S.Ehrlich, L.Goerigk, J Comput Chem, (2011), 32, 1456–1465 
S.Grimme, J.Antony, S.Ehrlich and H.Krieg, J.Chem.Phys., 132, (2010), 154104 
   

----- Orbital basis set information -----
Your calculation utilizes the basis: def2-TZVPPD
   F. Weigend and R. Ahlrichs, Phys. Chem. Chem. Phys. 7, 3297 (2005).
   D. Rappoport and F. Furche, J. Chem. Phys. 133 134105 (2010).

----- AuxC basis set information -----
Your calculation utilizes the auxiliary basis: def2-TZVPPD/C
   A. Hellweg, C. Hattig, S. Hofener and W. Klopper, Theor. Chem. Acc. 117, 587 (2007).

----- AuxJK basis set information -----
Your calculation utilizes the auxiliary basis: def2/JK
   H-Ba, Hf-Rn: F. Weigend, J. Comput. Chem. 29, 167 (2008).

================================================================================
                                        WARNINGS
                       Please study these warnings very carefully!
================================================================================


WARNING: No MP2 level density has been requested!
         To caclulate MP2 level properties use
         %mp2 Density relaxed end
         or
         %mp2 Density unrelaxed end
         Otherwise for double-hybrid DFT only the energy is correct!

WARNING: There are different parametrizations of Gershom Martin's DSD-DFs
         for use with and without D3(BJ)!
         You are using the D3(BJ) parametrized version,
         consistent with the 2013 article (S. Kozuch and J. M. L. Martin, JCC 2013, 34, 2327)

WARNING: The frozen-core approximation is turned on by default for 
         the MP2 part of double-hybrid DFT.

INFO   : the flag for use of LIBINT has been found!

================================================================================
                                       INPUT FILE
================================================================================
NAME = MOR05_co.in
|  1> #
|  2> # MOR05_co ri-DSD-BLYP/2013-D3BJ/Def2-TZVPPD
|  3> #
|  4> ! rijk ri-dsd-blyp/2013 d3bj def2-tzvppd def2/jk def2-tzvppd/c grid4 nofinalgrid
|  5> 
|  6> *xyz 0 1
|  7> O        0.000000    0.000000    0.486237 
|  8> C        0.000000    0.000000   -0.648315 
|  9> *
| 10> 
| 11> %maxcore 5000
| 12> 
| 13> %pal
| 14> nprocs = 24
| 15> end
| 16> 
| 17> 
| 18>                          ****END OF INPUT****
================================================================================

                       ****************************
                       * Single Point Calculation *
                       ****************************

---------------------------------
CARTESIAN COORDINATES (ANGSTROEM)
---------------------------------
  O      0.000000    0.000000    0.486237
  C      0.000000    0.000000   -0.648315

----------------------------
CARTESIAN COORDINATES (A.U.)
----------------------------
  NO LB      ZA    FRAG     MASS         X           Y           Z
   0 O     8.0000    0    15.999    0.000000    0.000000    0.918855
   1 C     6.0000    0    12.011    0.000000    0.000000   -1.225138

--------------------------------
INTERNAL COORDINATES (ANGSTROEM)
--------------------------------
 O      0   0   0     0.000000000000     0.00000000     0.00000000
 C      1   0   0     1.134552000000     0.00000000     0.00000000

---------------------------
INTERNAL COORDINATES (A.U.)
---------------------------
 O      0   0   0     0.000000000000     0.00000000     0.00000000
 C      1   0   0     2.143992564693     0.00000000     0.00000000

---------------------
BASIS SET INFORMATION
---------------------
There are 2 groups of distinct atoms

 Group   1 Type O   : 12s7p3d1f contracted to 6s4p3d1f pattern {621111/4111/111/1}
 Group   2 Type C   : 12s6p3d1f contracted to 6s3p3d1f pattern {621111/411/111/1}

Atom   0O    basis set group =>   1
Atom   1C    basis set group =>   2
---------------------------------
AUXILIARY/C BASIS SET INFORMATION
---------------------------------
There are 2 groups of distinct atoms

 Group   1 Type O   : 9s7p6d4f1g contracted to 9s7p5d4f1g pattern {111111111/1111111/21111/1111/1}
 Group   2 Type C   : 9s7p6d4f1g contracted to 9s7p5d4f1g pattern {111111111/1111111/21111/1111/1}

Atom   0O    basis set group =>   1
Atom   1C    basis set group =>   2
----------------------------------
AUXILIARY/JK BASIS SET INFORMATION
----------------------------------
There are 2 groups of distinct atoms

 Group   1 Type O   : 14s10p6d2f1g contracted to 10s8p4d2f1g pattern {5111111111/31111111/3111/11/1}
 Group   2 Type C   : 14s10p6d2f1g contracted to 10s8p5d1f1g pattern {5111111111/31111111/21111/2/1}

Atom   0O    basis set group =>   1
Atom   1C    basis set group =>   2


           ************************************************************
           *        Program running with 24 parallel MPI-processes    *
           *              working on a common directory               *
           ************************************************************
------------------------------------------------------------------------------
                           ORCA GTO INTEGRAL CALCULATION
                           -- RI-GTO INTEGRALS CHOSEN --
------------------------------------------------------------------------------

                         BASIS SET STATISTICS AND STARTUP INFO

Gaussian basis set:
 # of primitive gaussian shells          ...   45
 # of primitive gaussian functions       ...  107
 # of contracted shells                  ...   27
 # of contracted basis functions         ...   77
 Highest angular momentum                ...    3
 Maximum contraction depth               ...    6
Auxiliary gaussian basis set:
 # of primitive gaussian shells          ...   66
 # of primitive gaussian functions       ...  194
 # of contracted shells                  ...   50
 # of contracted aux-basis functions     ...  152
 Highest angular momentum                ...    4
 Maximum contraction depth               ...    5
Ratio of auxiliary to basis functions    ...  1.97
Integral package used                  ... LIBINT
 One Electron integrals                  ... done
 Ordering auxiliary basis shells         ... done
 Integral threshhold             Thresh  ...  1.000e-10
 Primitive cut-off               TCut    ...  1.000e-11
 Pre-screening matrix                    ... done
 Shell pair data                         ... 
 Ordering of the shell pairs             ... done (   0.000 sec) 377 of 378 pairs
 Determination of significant pairs      ... done (   0.000 sec)
 Creation of shell pair data             ... done (   0.000 sec)
 Storage of shell pair data              ... done (   0.010 sec)
 Shell pair data done in (   0.011 sec)
 Computing two index integrals           ... done
 Cholesky decomposition of the V-matrix  ... done


Timings:
 Total evaluation time                   ...   0.154 sec (  0.003 min)
 One electron matrix time                ...   0.012 sec (  0.000 min) =  7.8%
 Schwartz matrix evaluation time         ...   0.108 sec (  0.002 min) = 70.2%
 Two index repulsion integral time       ...   0.001 sec (  0.000 min) =  0.3%
 Cholesky decomposition of V             ...   0.001 sec (  0.000 min) =  0.6%
 Three index repulsion integral time     ...   0.000 sec (  0.000 min) =  0.0%



           ************************************************************
           *        Program running with 24 parallel MPI-processes    *
           *              working on a common directory               *
           ************************************************************
-------------------------------------------------------------------------------
                                 ORCA SCF
-------------------------------------------------------------------------------

------------
SCF SETTINGS
------------
Hamiltonian:
 Density Functional     Method          .... DFT(GTOs)
 Exchange Functional    Exchange        .... B88
   X-Alpha parameter    XAlpha          ....  0.666667
   Becke's b parameter  XBeta           ....  0.004200
 Correlation Functional Correlation     .... LYP
 LDA part of GGA corr.  LDAOpt          .... VWN-5
 Gradients option       PostSCFGGA      .... off
 Hybrid DFT is turned on
   Fraction HF Exchange ScalHFX         ....  0.710000
   Scaling of DF-GGA-X  ScalDFX         ....  0.290000
   Scaling of DF-GGA-C  ScalDFC         ....  0.540000
   Scaling of DF-LDA-C  ScalLDAC        ....  0.540000
   Perturbative correction              ....  1.000000
   Density functional embedding theory  .... OFF
 RI-approximation to the Coulomb term is turned on
   Number of auxiliary basis functions  .... 152
   RI-JK (J+K treated both via RI)      .... on


General Settings:
 Integral files         IntName         .... MOR05_co
 Hartree-Fock type      HFTyp           .... RHF
 Total Charge           Charge          ....    0
 Multiplicity           Mult            ....    1
 Number of Electrons    NEL             ....   14
 Basis Dimension        Dim             ....   77
 Nuclear Repulsion      ENuc            ....     22.3881373427 Eh

Convergence Acceleration:
 DIIS                   CNVDIIS         .... on
   Start iteration      DIISMaxIt       ....    12
   Startup error        DIISStart       ....  0.200000
   # of expansion vecs  DIISMaxEq       ....     5
   Bias factor          DIISBfac        ....   1.050
   Max. coefficient     DIISMaxC        ....  10.000
 Newton-Raphson         CNVNR           .... off
 SOSCF                  CNVSOSCF        .... on
   Start iteration      SOSCFMaxIt      ....   150
   Startup grad/error   SOSCFStart      ....  0.003300
 Level Shifting         CNVShift        .... on
   Level shift para.    LevelShift      ....    0.2500
   Turn off err/grad.   ShiftErr        ....    0.0010
 Zerner damping         CNVZerner       .... off
 Static damping         CNVDamp         .... on
   Fraction old density DampFac         ....    0.7000
   Max. Damping (<1)    DampMax         ....    0.9800
   Min. Damping (>=0)   DampMin         ....    0.0000
   Turn off err/grad.   DampErr         ....    0.1000
 Fernandez-Rico         CNVRico         .... off

SCF Procedure:
 Maximum # iterations   MaxIter         ....   125
 SCF integral mode      SCFMode         .... Direct
   Integral package                     .... LIBINT
 Reset frequency        DirectResetFreq ....    20
 Integral Threshold     Thresh          ....  1.000e-10 Eh
 Primitive CutOff       TCut            ....  1.000e-11 Eh

Convergence Tolerance:
 Convergence Check Mode ConvCheckMode   .... Total+1el-Energy
 Convergence forced     ConvForced      .... 0
 Energy Change          TolE            ....  1.000e-06 Eh
 1-El. energy change                    ....  1.000e-03 Eh
 Orbital Gradient       TolG            ....  5.000e-05
 Orbital Rotation angle TolX            ....  5.000e-05
 DIIS Error             TolErr          ....  1.000e-06


Diagonalization of the overlap matrix:
Smallest eigenvalue                        ... 2.208e-04
Time for diagonalization                   ...    0.003 sec
Threshold for overlap eigenvalues          ... 1.000e-08
Number of eigenvalues below threshold      ... 0
Time for construction of square roots      ...    0.001 sec
Total time needed                          ...    0.005 sec

-------------------
DFT GRID GENERATION
-------------------

General Integration Accuracy     IntAcc      ...  4.670
Radial Grid Type                 RadialGrid  ... Gauss-Chebyshev
Angular Grid (max. acc.)         AngularGrid ... Lebedev-302
Angular grid pruning method      GridPruning ... 3 (G Style)
Weight generation scheme         WeightScheme... Becke
Basis function cutoff            BFCut       ...    1.0000e-10
Integration weight cutoff        WCut        ...    1.0000e-14
Grids for H and He will be reduced by one unit

# of grid points (after initial pruning)     ...  12424 (   0.0 sec)
# of grid points (after weights+screening)   ...  12393 (   0.0 sec)
nearest neighbour list constructed           ...    0.0 sec
Grid point re-assignment to atoms done       ...    0.0 sec
Grid point division into batches done        ...    0.1 sec
Reduced shell lists constructed in    0.1 sec

Total number of grid points                  ...    12393
Total number of batches                      ...      195
Average number of points per batch           ...       63
Average number of grid points per atom       ...     6196
Average number of shells per batch           ...     8.00 (29.63%)
Average number of basis functions per batch  ...    20.60 (26.75%)
Average number of large shells per batch     ...     6.00 (75.00%)
Average number of large basis fcns per batch ...    16.20 (78.64%)
Average number of aux-shells per batch       ...     8.00 (16.00%)
Average number of aux functions per batch    ...    20.60 (13.55%)
Maximum spatial batch extension              ...  16.88, 16.88, 11.98 au
Average spatial batch extension              ...   0.69,  0.69,  0.47 au

Time for grid setup =    0.109 sec

------------------------------
INITIAL GUESS: MODEL POTENTIAL
------------------------------
Loading Hartree-Fock densities                     ... done
Calculating cut-offs                               ... done
Setting up the integral package                    ... done
Initializing the effective Hamiltonian             ... done
Starting the Coulomb interaction                   ... done (   0.0 sec)
Reading the grid                                   ... done
Mapping shells                                     ... done
Starting the XC term evaluation                    ... done (   0.0 sec)
  promolecular density results
     # of electrons  =     13.999992420
     EX              =    -13.248106201
     EC              =     -0.049039870
     EX+EC           =    -13.297146071
Transforming the Hamiltonian                       ... done (   0.0 sec)
Diagonalizing the Hamiltonian                      ... done (   0.0 sec)
Back transforming the eigenvectors                 ... done (   0.0 sec)
Now organizing SCF variables                       ... done
                      ------------------
                      INITIAL GUESS DONE (   0.2 sec)
                      ------------------
--------------
SCF ITERATIONS
--------------
ITER       Energy         Delta-E        Max-DP      RMS-DP      [F,P]     Damp
  0   -113.0247176282   0.000000000000 0.03294466  0.00100730  0.2089586 0.7000
  1   -112.9761846843   0.048532943954 0.02951646  0.00091461  0.1714631 0.7000
                               ***Turning on DIIS***
  2   -112.9877337450  -0.011549060769 0.05068812  0.00159927  0.0785068 0.0000
  3   -113.0480754979  -0.060341752845 0.00708597  0.00027518  0.1377833 0.7000
  4   -113.0697081619  -0.021632664019 0.00694857  0.00027117  0.1301141 0.7000
  5   -113.0739540111  -0.004245849246 0.00627850  0.00023801  0.1032679 0.7000
  6   -113.0755949124  -0.001640901262 0.01738299  0.00064546  0.0775641 0.0000
  7   -113.0650954044   0.010499507975 0.00245740  0.00010385  0.0052017 0.0000
                      *** Initiating the SOSCF procedure ***
                           *** Shutting down DIIS ***
                      *** Re-Reading the Fockian *** 
                      *** Removing any level shift *** 
ITER      Energy       Delta-E        Grad      Rot      Max-DP    RMS-DP
  8   -113.06513623  -0.0000408207  0.000271  0.000271  0.001124  0.000030
  9   -113.06513779  -0.0000015635  0.000147  0.000228  0.000455  0.000016
 10   -113.06513783  -0.0000000380  0.000163  0.000108  0.000108  0.000005
                 **** Energy Check signals convergence ****
              ***Rediagonalizing the Fockian in SOSCF/NRSCF***

               *****************************************************
               *                     SUCCESS                       *
               *           SCF CONVERGED AFTER  11 CYCLES          *
               *****************************************************


----------------
TOTAL SCF ENERGY
----------------

Total Energy       :         -113.06513803 Eh           -3076.65882 eV

Components:
Nuclear Repulsion  :           22.38813734 Eh             609.21219 eV
Electronic Energy  :         -135.45327537 Eh           -3685.87101 eV
One Electron Energy:         -198.05473328 Eh           -5389.34328 eV
Two Electron Energy:           62.60145791 Eh            1703.47227 eV

Virial components:
Potential Energy   :         -225.78831176 Eh           -6144.01232 eV
Kinetic Energy     :          112.72317374 Eh            3067.35350 eV
Virial Ratio       :            2.00303366


DFT components:
N(Alpha)           :        6.999997251883 electrons
N(Beta)            :        6.999997251883 electrons
N(Total)           :       13.999994503765 electrons
E(X)               :       -3.882679362033 Eh       
E(C)               :       -0.261509607410 Eh       
E(XC)              :       -4.144188969443 Eh       
DFET-embed. en.    :        0.000000000000 Eh       

---------------
SCF CONVERGENCE
---------------

  Last Energy change         ...   -1.9966e-07  Tolerance :   1.0000e-06
  Last MAX-Density change    ...    2.1238e-05  Tolerance :   1.0000e-05
  Last RMS-Density change    ...    7.2905e-07  Tolerance :   1.0000e-06
  Last Orbital Gradient      ...    6.2585e-06  Tolerance :   5.0000e-05
  Last Orbital Rotation      ...    1.3067e-05  Tolerance :   5.0000e-05

             **** THE GBW FILE WAS UPDATED (MOR05_co.gbw) ****
             **** DENSITY FILE WAS UPDATED (MOR05_co.scfp) ****
             **** ENERGY FILE WAS UPDATED (MOR05_co.en.tmp) ****
             **** THE GBW FILE WAS UPDATED (MOR05_co.gbw) ****
             **** DENSITY FILE WAS UPDATED (MOR05_co.scfp) ****
----------------
ORBITAL ENERGIES
----------------

  NO   OCC          E(Eh)            E(eV) 
   0   2.0000     -20.157419      -548.5113 
   1   2.0000     -10.985308      -298.9254 
   2   2.0000      -1.395088       -37.9623 
   3   2.0000      -0.728002       -19.8099 
   4   2.0000      -0.584717       -15.9110 
   5   2.0000      -0.584717       -15.9110 
   6   2.0000      -0.497610       -13.5406 
   7   0.0000       0.058645         1.5958 
   8   0.0000       0.060562         1.6480 
   9   0.0000       0.060562         1.6480 
  10   0.0000       0.099164         2.6984 
  11   0.0000       0.104559         2.8452 
  12   0.0000       0.104559         2.8452 
  13   0.0000       0.159725         4.3463 
  14   0.0000       0.243527         6.6267 
  15   0.0000       0.243527         6.6267 
  16   0.0000       0.302044         8.2190 
  17   0.0000       0.302044         8.2190 
  18   0.0000       0.313918         8.5422 
  19   0.0000       0.386502        10.5172 
  20   0.0000       0.386502        10.5172 
  21   0.0000       0.410879        11.1806 
  22   0.0000       0.428663        11.6645 
  23   0.0000       0.512882        13.9562 
  24   0.0000       0.512882        13.9562 
  25   0.0000       0.514563        14.0020 
  26   0.0000       0.549452        14.9513 
  27   0.0000       0.549452        14.9513 
  28   0.0000       0.843645        22.9568 
  29   0.0000       0.883414        24.0389 
  30   0.0000       0.918957        25.0061 
  31   0.0000       0.918957        25.0061 
  32   0.0000       0.938318        25.5329 
  33   0.0000       0.938318        25.5329 
  34   0.0000       1.090042        29.6616 
  35   0.0000       1.128390        30.7051 
  36   0.0000       1.128390        30.7051 
  37   0.0000       1.403890        38.2018 
  38   0.0000       1.627856        44.2962 
  39   0.0000       1.731299        47.1110 
  40   0.0000       1.731299        47.1110 
  41   0.0000       1.857267        50.5388 
  42   0.0000       1.857267        50.5388 
  43   0.0000       1.990388        54.1612 
  44   0.0000       2.090937        56.8973 
  45   0.0000       2.090937        56.8973 
  46   0.0000       2.495059        67.8940 
  47   0.0000       2.808246        76.4163 
  48   0.0000       2.808246        76.4163 
  49   0.0000       3.016395        82.0803 
  50   0.0000       3.016395        82.0803 
  51   0.0000       3.021962        82.2318 
  52   0.0000       3.021963        82.2318 
  53   0.0000       3.246809        88.3502 
  54   0.0000       3.246809        88.3502 
  55   0.0000       3.278456        89.2113 
  56   0.0000       3.376948        91.8914 
  57   0.0000       3.376948        91.8914 
  58   0.0000       3.386458        92.1502 
  59   0.0000       3.863217       105.1235 
  60   0.0000       3.863217       105.1235 
  61   0.0000       4.355191       118.5108 
  62   0.0000       4.523924       123.1022 
  63   0.0000       5.352748       145.6557 
  64   0.0000       5.352748       145.6557 
  65   0.0000       5.773605       157.1078 
  66   0.0000       5.773605       157.1078 
  67   0.0000       6.505332       177.0191 
  68   0.0000       6.505332       177.0191 
  69   0.0000       6.677472       181.7033 
  70   0.0000       6.677477       181.7034 
  71   0.0000       6.819442       185.5665 
  72   0.0000       7.016276       190.9226 
  73   0.0000       7.016276       190.9226 
  74   0.0000       7.449993       202.7246 
  75   0.0000      22.748797       619.0262 
  76   0.0000      44.724365      1217.0119 

                    ********************************
                    * MULLIKEN POPULATION ANALYSIS *
                    ********************************

-----------------------
MULLIKEN ATOMIC CHARGES
-----------------------
   0 O :   -0.186919
   1 C :    0.186919
Sum of atomic charges:   -0.0000000

--------------------------------
MULLIKEN REDUCED ORBITAL CHARGES
--------------------------------
  0 O s       :     3.841047  s :     3.841047
      pz      :     1.354718  p :     4.302350
      px      :     1.473816
      py      :     1.473816
      dz2     :     0.008795  d :     0.041433
      dxz     :     0.016319
      dyz     :     0.016319
      dx2y2   :     0.000000
      dxy     :    -0.000000
      f0      :     0.000525  f :     0.002089
      f+1     :     0.000782
      f-1     :     0.000782
      f+2     :     0.000000
      f-2     :    -0.000000
      f+3     :     0.000000
      f-3     :     0.000000
  1 C s       :     3.765760  s :     3.765760
      pz      :     1.000307  p :     1.925097
      px      :     0.462395
      py      :     0.462395
      dz2     :     0.025341  d :     0.108378
      dxz     :     0.041519
      dyz     :     0.041519
      dx2y2   :     0.000000
      dxy     :     0.000000
      f0      :     0.003507  f :     0.013845
      f+1     :     0.005169
      f-1     :     0.005169
      f+2     :     0.000000
      f-2     :     0.000000
      f+3     :     0.000000
      f-3     :     0.000000


                     *******************************
                     * LOEWDIN POPULATION ANALYSIS *
                     *******************************

----------------------
LOEWDIN ATOMIC CHARGES
----------------------
   0 O :   -0.020673
   1 C :    0.020673

-------------------------------
LOEWDIN REDUCED ORBITAL CHARGES
-------------------------------
  0 O s       :     3.469608  s :     3.469608
      pz      :     1.686949  p :     4.364450
      px      :     1.338750
      py      :     1.338750
      dz2     :     0.139178  d :     0.181173
      dxz     :     0.020998
      dyz     :     0.020998
      dx2y2   :     0.000000
      dxy     :     0.000000
      f0      :     0.003469  f :     0.005442
      f+1     :     0.000987
      f-1     :     0.000987
      f+2     :     0.000000
      f-2     :     0.000000
      f+3     :     0.000000
      f-3     :     0.000000
  1 C s       :     3.294115  s :     3.294115
      pz      :     1.198495  p :     2.193297
      px      :     0.497401
      py      :     0.497401
      dz2     :     0.182474  d :     0.403210
      dxz     :     0.110368
      dyz     :     0.110368
      dx2y2   :     0.000000
      dxy     :     0.000000
      f0      :     0.025712  f :     0.088705
      f+1     :     0.031496
      f-1     :     0.031496
      f+2     :     0.000000
      f-2     :     0.000000
      f+3     :     0.000000
      f-3     :     0.000000


                      *****************************
                      * MAYER POPULATION ANALYSIS *
                      *****************************

  NA   - Mulliken gross atomic population
  ZA   - Total nuclear charge
  QA   - Mulliken gross atomic charge
  VA   - Mayer's total valence
  BVA  - Mayer's bonded valence
  FA   - Mayer's free valence

  ATOM       NA         ZA         QA         VA         BVA        FA
  0 O      8.1869     8.0000    -0.1869     2.3587     2.3587    -0.0000
  1 C      5.8131     6.0000     0.1869     2.3587     2.3587     0.0000

  Mayer bond orders larger than 0.100000
B(  0-O ,  1-C ) :   2.3587 

-------
TIMINGS
-------

Total SCF time: 0 days 0 hours 0 min 1 sec 

Total time                  ....       1.316 sec
Sum of individual times     ....       1.227 sec  ( 93.3%)

Fock matrix formation       ....       0.992 sec  ( 75.3%)
  XC integration            ....       0.124 sec  ( 12.5% of F)
    Basis function eval.    ....       0.013 sec  ( 10.3% of XC)
    Density eval.           ....       0.007 sec  (  5.3% of XC)
    XC-Functional eval.     ....       0.005 sec  (  4.2% of XC)
    XC-Potential eval.      ....       0.012 sec  (  9.4% of XC)
Diagonalization             ....       0.009 sec  (  0.7%)
Density matrix formation    ....       0.003 sec  (  0.2%)
Population analysis         ....       0.002 sec  (  0.2%)
Initial guess               ....       0.107 sec  (  8.1%)
Orbital Transformation      ....       0.000 sec  (  0.0%)
Orbital Orthonormalization  ....       0.000 sec  (  0.0%)
DIIS solution               ....       0.005 sec  (  0.3%)
SOSCF solution              ....       0.002 sec  (  0.1%)
Grid generation             ....       0.109 sec  (  8.3%)


           ************************************************************
           *        Program running with 24 parallel MPI-processes    *
           *              working on a common directory               *
           ************************************************************

------------------------------------------------------------------------------
                                ORCA  MP2 
------------------------------------------------------------------------------

Freezing NCore=4 chemical core electrons

-------------
RI-MP2 ENERGY
-------------
Dimension of the basis                    ...   77
Memory devoted to MP2                     ... 5000 MB   
Data format for buffers                   ... DOUBLE
Compression type for matrix containers    ... UNCOMPRESSED
Scaling for aa/bb pairs                   ...   4.000e-01
Scaling for ab pairs                      ...   4.700e-01
Overall scaling of the MP2 energy         ...   1.000e+00
Calculating two index integrals           ... done (    0.001 sec)
Cholesky decomposition of V**-1           ... done (    0.052 sec)

-----------------
RI-TRANSFORMATION (AUX index driven)
-----------------

Dimension of the orbital-basis         ... 77
Dimension of the aux-basis             ... 184
Transformation of internal/external MOs...    2-   6 to    7-  76
Number Format for Storage              ... Double (8 Byte)
Integral mode                          ... Direct

First Phase: integral generation and transformation of MO indices
  Aux angular momentum 0               ... done (    0.000 sec)
  Aux angular momentum 1               ... done (    0.000 sec)
  Aux angular momentum 2               ... done (    0.000 sec)
  Aux angular momentum 3               ... done (    0.001 sec)
  Aux angular momentum 4               ... done (    0.001 sec)
Closing buffer VIA ( 0.00 GB; CompressionRatio= 1.00)
  Phase 1 completed in     0.104 sec
Second Phase: sorting and transformation of aux index

IA-Transformation
Memory available                       ... 5000 MB 
Max. # MO pairs treated in a batch     ... 1    
# of internal orbitals                 ... 5
# batches for internal orbitals        ... 1
Closing buffer IAV ( 0.00 GB; CompressionRatio= 1.00)
(ia|v) transformation done in     0.002 sec

  Phase 2 completed in     0.006 sec
RI-Integral transformation completed in     0.111 sec
Opening buffers                              ... done

Starting loop over batches of integrals:

Operator 0  - window                       ... (  2-  6)x(  7- 76)
Operator 0  - Memory available             ...  5000 MB
Operator 0  - Memory needed per MO         ...   0.1 MB
Operator 0  - Number of orbitals per batch ... 1
Operator 0  - Number of batches            ... 1

OPERATOR  0   PASS   0:  MOs     2 ...    2 +    3 ...    3 +    4 ...    4 +    5 ...    5
                            +    6 ...    6
  Reading integrals       ... ok
Time spent in pair loops =     0.001 sec
Deleting buffer (Ka|jb)[aa] ...done

-----------------------------------------------
 RI-MP2 CORRELATION ENERGY:     -0.182130567 Eh
-----------------------------------------------


-------
TIMINGS
-------

Total time                :    0.188 sec
Integral trafo            :    0.132 sec ( 70.4%)
I/O of integrals          :    0.000 sec (  0.1%)
K(i,j) Operators          :    0.000 sec (  0.0%)
T(i,j) pair energies      :    0.000 sec (  0.0%)
V-calculation             :    0.001 sec (  0.7%)
V**(-1/2)                 :    0.052 sec ( 27.9%)
Gamma(ia|P)               :    0.000 sec (  0.0%)
Gamma-Trafo               :    0.000 sec (  0.0%)
D(virtual)                :    0.000 sec (  0.0%)
D(internal)               :    0.000 sec (  0.0%)
W(virtual)                :    0.000 sec (  0.0%)
W(internal)               :    0.000 sec (  0.0%)
L(virtual)                :    0.000 sec (  0.0%)
L(internal)               :    0.000 sec (  0.0%)
G(D)                      :    0.000 sec (  0.0%)
G(Z)                      :    0.000 sec (  0.0%)
Z-Vector Solution         :    0.000 sec (  0.0%)
Z-Vector Solution         :    0.000 sec (  0.0%)
3-Index Derivative 
+ Separable RIJ part      :    0.000 sec (  0.0%)
2-Index Derivative 
+ Separable RIJ part      :    0.000 sec (  0.0%)
Separable Gradient (X)    :    0.000 sec (  0.0%)


---------------------------------------
MP2 TOTAL ENERGY:     -113.247268593 Eh
---------------------------------------


-------------------------------------------------------------------------------
                          DFT DISPERSION CORRECTION                            
                                                                               
                              DFTD3 V3.1  Rev 1                                
                          USING Becke-Johnson damping                          
-------------------------------------------------------------------------------
The DSD-BLYP/2013 functional is recognized
Active option DFTDOPT                   ...         4   

molecular C6(AA) [au] = 100.821916 


            DFT-D V3
 parameters
 s6 scaling factor         :     0.5700 
 a1 scaling factor         :     0.0000 
 s8 scaling factor         :     0.0000 
 a2 scaling factor         :     5.4000 
 ad hoc parameters k1-k3   :    16.0000     1.3333    -4.0000 

 Edisp/kcal,au: -0.322899043315  -0.000514572325 
 E6   /kcal   :  -0.322899043 
 E8   /kcal   :  -0.000000000 
 % E8         :   0.000000000 

-------------------------   ----------------
Dispersion correction           -0.000514572
-------------------------   ----------------


-------------------------   --------------------
FINAL SINGLE POINT ENERGY      -113.247783165297
-------------------------   --------------------


                            ***************************************
                            *     ORCA property calculations      *
                            ***************************************


  WARNING: The energy has been calculated at the MP2 level but the densities
           used in the property calculations are still SCF densities
           MP2 response densities have not been calculated 
           use %mp2 Density relaxed end
           or  %mp2 Density unrelaxed end

                                    ---------------------
                                    Active property flags
                                    ---------------------
   (+) Dipole Moment


------------------------------------------------------------------------------
                       ORCA ELECTRIC PROPERTIES CALCULATION
------------------------------------------------------------------------------

Dipole Moment Calculation                       ... on
Quadrupole Moment Calculation                   ... off
Polarizability Calculation                      ... off
GBWName                                         ... MOR05_co.gbw
Electron density file                           ... MOR05_co.scfp
The origin for moment calculation is the CENTER OF MASS  = ( 0.000000,  0.000000 -0.000513)

-------------
DIPOLE MOMENT
-------------
                                X             Y             Z
Electronic contribution:     -0.00000      -0.00000      -0.07478
Nuclear contribution   :      0.00000       0.00000       0.00720
                        -----------------------------------------
Total Dipole Moment    :     -0.00000      -0.00000      -0.06759
                        -----------------------------------------
Magnitude (a.u.)       :      0.06759
Magnitude (Debye)      :      0.17179



--------------------
Rotational spectrum 
--------------------
 
Rotational constants in cm-1:     0.000000     1.908926     1.908926 
Rotational constants in MHz :     0.000000 57228.174924 57228.174924 

 Dipole components along the rotational axes: 
x,y,z [a.u.] :    -0.067585    -0.000000    -0.000000 
x,y,z [Debye]:    -0.171787    -0.000000    -0.000000 

 

Timings for individual modules:

Sum of individual times         ...        3.072 sec (=   0.051 min)
GTO integral calculation        ...        0.556 sec (=   0.009 min)  18.1 %
SCF iterations                  ...        1.654 sec (=   0.028 min)  53.8 %
MP2 module                      ...        0.862 sec (=   0.014 min)  28.1 %
                             ****ORCA TERMINATED NORMALLY****
TOTAL RUN TIME: 0 days 0 hours 0 minutes 3 seconds 577 msec
