
                                 *****************
                                 * O   R   C   A *
                                 *****************

           --- An Ab Initio, DFT and Semiempirical electronic structure package ---

                  #######################################################
                  #                        -***-                        #
                  #          Department of theory and spectroscopy      #
                  #               Directorship: Frank Neese             #
                  #        Max Planck Institute fuer Kohlenforschung    #
                  #                Kaiser Wilhelm Platz 1               #
                  #                 D-45470 Muelheim/Ruhr               #
                  #                      Germany                        #
                  #                                                     #
                  #                  All rights reserved                #
                  #                        -***-                        #
                  #######################################################


                         Program Version 4.2.0 -  RELEASE  -


 With contributions from (in alphabetic order):
   Daniel Aravena         : Magnetic Suceptibility
   Michael Atanasov       : Ab Initio Ligand Field Theory (pilot matlab implementation)
   Alexander A. Auer      : GIAO ZORA, VPT2
   Ute Becker             : Parallelization
   Giovanni Bistoni       : ED, misc. LED, open-shell LED, HFLED
   Martin Brehm           : Molecular dynamics
   Dmytro Bykov           : SCF Hessian
   Vijay G. Chilkuri      : MRCI spin determinant printing, contributions to CSF-ICE
   Dipayan Datta          : RHF DLPNO-CCSD density
   Achintya Kumar Dutta   : EOM-CC, STEOM-CC
   Dmitry Ganyushin       : Spin-Orbit,Spin-Spin,Magnetic field MRCI
   Miquel Garcia          : C-PCM Hessian, Gaussian charge scheme
   Yang Guo               : DLPNO-NEVPT2, CIM, IAO-localization
   Andreas Hansen         : Spin unrestricted coupled pair/coupled cluster methods
   Benjamin Helmich-Paris : CASSCF linear response (MC-RPA)
   Lee Huntington         : MR-EOM, pCC
   Robert Izsak           : Overlap fitted RIJCOSX, COSX-SCS-MP3, EOM
   Christian Kollmar      : KDIIS, OOCD, Brueckner-CCSD(T), CCSD density
   Simone Kossmann        : Meta GGA functionals, TD-DFT gradient, OOMP2, MP2 Hessian
   Martin Krupicka        : AUTO-CI
   Lucas Lang             : DCDCAS
   Dagmar Lenk            : GEPOL surface, SMD
   Dimitrios Liakos       : Extrapolation schemes; Compound Job, initial MDCI parallelization
   Dimitrios Manganas     : Further ROCIS development; embedding schemes
   Dimitrios Pantazis     : SARC Basis sets
   Taras Petrenko         : DFT Hessian,TD-DFT gradient, ASA, ECA, R-Raman, ABS, FL, XAS/XES, NRVS
   Peter Pinski           : DLPNO-MP2, DLPNO-MP2 Gradient
   Christoph Reimann      : Effective Core Potentials
   Marius Retegan         : Local ZFS, SOC
   Christoph Riplinger    : Optimizer, TS searches, QM/MM, DLPNO-CCSD(T), (RO)-DLPNO pert. Triples
   Tobias Risthaus        : Range-separated hybrids, TD-DFT gradient, RPA, STAB
   Michael Roemelt        : Original ROCIS implementation
   Masaaki Saitow         : Open-shell DLPNO-CCSD energy and density
   Barbara Sandhoefer     : DKH picture change effects
   Avijit Sen             : IP-ROCIS
   Kantharuban Sivalingam : CASSCF convergence, NEVPT2, FIC-MRCI
   Bernardo de Souza      : ESD, SOC TD-DFT
   Georgi Stoychev        : AutoAux, RI-MP2 NMR
   Willem Van den Heuvel  : Paramagnetic NMR
   Boris Wezisla          : Elementary symmetry handling
   Frank Wennmohs         : Technical directorship


 We gratefully acknowledge several colleagues who have allowed us to
 interface, adapt or use parts of their codes:
   Stefan Grimme, W. Hujo, H. Kruse,             : VdW corrections, initial TS optimization,
                  C. Bannwarth                     DFT functionals, gCP, sTDA/sTD-DF
   Ed Valeev, F. Pavosevic, A. Kumar             : LibInt (2-el integral package), F12 methods
   Garnet Chan, S. Sharma, J. Yang, R. Olivares  : DMRG
   Ulf Ekstrom                                   : XCFun DFT Library
   Mihaly Kallay                                 : mrcc  (arbitrary order and MRCC methods)
   Andreas Klamt, Michael Diedenhofen            : otool_cosmo (COSMO solvation model)
   Jiri Pittner, Ondrej Demel                    : Mk-CCSD
   Frank Weinhold                                : gennbo (NPA and NBO analysis)
   Christopher J. Cramer and Donald G. Truhlar   : smd solvation model
   Lars Goerigk                                  : TD-DFT with DH, B97 family of functionals
   V. Asgeirsson, H. Jonsson                     : NEB implementation
   FAccTs GmbH                                   : IRC, NEB, NEB-TS, Multilevel, MM, QM/MM, CI optimization
   S Lehtola, MJT Oliveira, MAL Marques          : LibXC Library


 Your calculation uses the libint2 library for the computation of 2-el integrals
 For citations please refer to: http://libint.valeyev.net

 Your ORCA version has been built with support for libXC version: 4.2.3
 For citations please refer to: https://tddft.org/programs/libxc/

 This ORCA versions uses:
   CBLAS   interface :  Fast vector & matrix operations
   LAPACKE interface :  Fast linear algebra routines
   SCALAPACK package :  Parallel linear algebra routines


Your calculation utilizes the atom-pairwise dispersion correction
with the Becke-Johnson damping scheme (D3BJ)
Cite in your paper:
S.Grimme, S.Ehrlich, L.Goerigk, J Comput Chem, (2011), 32, 1456–1465 
S.Grimme, J.Antony, S.Ehrlich and H.Krieg, J.Chem.Phys., 132, (2010), 154104 
   

----- Orbital basis set information -----
Your calculation utilizes the basis: def2-TZVPPD
   F. Weigend and R. Ahlrichs, Phys. Chem. Chem. Phys. 7, 3297 (2005).
   D. Rappoport and F. Furche, J. Chem. Phys. 133 134105 (2010).

----- AuxC basis set information -----
Your calculation utilizes the auxiliary basis: def2-TZVPPD/C
   A. Hellweg, C. Hattig, S. Hofener and W. Klopper, Theor. Chem. Acc. 117, 587 (2007).

----- AuxJK basis set information -----
Your calculation utilizes the auxiliary basis: def2/JK
   H-Ba, Hf-Rn: F. Weigend, J. Comput. Chem. 29, 167 (2008).

================================================================================
                                        WARNINGS
                       Please study these warnings very carefully!
================================================================================


WARNING: No MP2 level density has been requested!
         To caclulate MP2 level properties use
         %mp2 Density relaxed end
         or
         %mp2 Density unrelaxed end
         Otherwise for double-hybrid DFT only the energy is correct!

WARNING: There are different parametrizations of Gershom Martin's DSD-DFs
         for use with and without D3(BJ)!
         You are using the D3(BJ) parametrized version,
         consistent with the 2013 article (S. Kozuch and J. M. L. Martin, JCC 2013, 34, 2327)

WARNING: The frozen-core approximation is turned on by default for 
         the MP2 part of double-hybrid DFT.

INFO   : the flag for use of LIBINT has been found!

================================================================================
                                       INPUT FILE
================================================================================
NAME = MOR01_accl.in
|  1> #
|  2> # MOR01_accl ri-DSD-BLYP/2013-D3BJ/Def2-TZVPPD
|  3> #
|  4> ! rijk ri-dsd-blyp/2013 d3bj def2-tzvppd def2/jk def2-tzvppd/c grid4 nofinalgrid
|  5> 
|  6> *xyz 0 1
|  7> C        1.306659   -1.017500   -0.000028 
|  8> C        0.488515    0.240833   -0.000079 
|  9> H        2.367301   -0.760167   -0.001300 
| 10> H        1.052624   -1.613812   -0.881062 
| 11> H        1.054555   -1.612076    0.882774 
| 12> O        0.865971    1.367720    0.000018 
| 13> Cl      -1.304312   -0.135041    0.000005 
| 14> *
| 15> 
| 16> %maxcore 5000
| 17> 
| 18> %pal
| 19> nprocs = 24
| 20> end
| 21> 
| 22> 
| 23>                          ****END OF INPUT****
================================================================================

                       ****************************
                       * Single Point Calculation *
                       ****************************

---------------------------------
CARTESIAN COORDINATES (ANGSTROEM)
---------------------------------
  C      1.306659   -1.017500   -0.000028
  C      0.488515    0.240833   -0.000079
  H      2.367301   -0.760167   -0.001300
  H      1.052624   -1.613812   -0.881062
  H      1.054555   -1.612076    0.882774
  O      0.865971    1.367720    0.000018
  Cl    -1.304312   -0.135041    0.000005

----------------------------
CARTESIAN COORDINATES (A.U.)
----------------------------
  NO LB      ZA    FRAG     MASS         X           Y           Z
   0 C     6.0000    0    12.011    2.469228   -1.922796   -0.000053
   1 C     6.0000    0    12.011    0.923160    0.455108   -0.000149
   2 H     1.0000    0     1.008    4.473551   -1.436507   -0.002457
   3 H     1.0000    0     1.008    1.989171   -3.049663   -1.664966
   4 H     1.0000    0     1.008    1.992820   -3.046382    1.668201
   5 O     8.0000    0    15.999    1.636448    2.584616    0.000034
   6 Cl   17.0000    0    35.453   -2.464792   -0.255191    0.000009

--------------------------------
INTERNAL COORDINATES (ANGSTROEM)
--------------------------------
 C      0   0   0     0.000000000000     0.00000000     0.00000000
 C      1   0   0     1.500920233132     0.00000000     0.00000000
 H      1   2   0     1.091413461085   109.39354470     0.00000000
 H      1   2   3     1.093774515942   109.29563365   238.66057659
 H      1   2   3     1.093808218014   109.27598563   121.31046809
 O      2   1   3     1.188422211217   128.45033757   359.92100454
 Cl     2   1   3     1.831805099584   111.19033989   179.93209452

---------------------------
INTERNAL COORDINATES (A.U.)
---------------------------
 C      0   0   0     0.000000000000     0.00000000     0.00000000
 C      1   0   0     2.836328189481     0.00000000     0.00000000
 H      1   2   0     2.062472540325   109.39354470     0.00000000
 H      1   2   3     2.066934287393   109.29563365   238.66057659
 H      1   2   3     2.066997975080   109.27598563   121.31046809
 O      2   1   3     2.245792510669   128.45033757   359.92100454
 Cl     2   1   3     3.461609968934   111.19033989   179.93209452

---------------------
BASIS SET INFORMATION
---------------------
There are 4 groups of distinct atoms

 Group   1 Type C   : 12s6p3d1f contracted to 6s3p3d1f pattern {621111/411/111/1}
 Group   2 Type H   : 5s3p1d contracted to 3s3p1d pattern {311/111/1}
 Group   3 Type O   : 12s7p3d1f contracted to 6s4p3d1f pattern {621111/4111/111/1}
 Group   4 Type Cl  : 15s10p4d1f contracted to 6s6p4d1f pattern {732111/511111/1111/1}

Atom   0C    basis set group =>   1
Atom   1C    basis set group =>   1
Atom   2H    basis set group =>   2
Atom   3H    basis set group =>   2
Atom   4H    basis set group =>   2
Atom   5O    basis set group =>   3
Atom   6Cl   basis set group =>   4
---------------------------------
AUXILIARY/C BASIS SET INFORMATION
---------------------------------
There are 4 groups of distinct atoms

 Group   1 Type C   : 9s7p6d4f1g contracted to 9s7p5d4f1g pattern {111111111/1111111/21111/1111/1}
 Group   2 Type H   : 5s4p3d1f contracted to 5s4p3d1f pattern {11111/1111/111/1}
 Group   3 Type O   : 9s7p6d4f1g contracted to 9s7p5d4f1g pattern {111111111/1111111/21111/1111/1}
 Group   4 Type Cl  : 12s9p8d6f2g contracted to 12s9p8d6f2g pattern {111111111111/111111111/11111111/111111/11}

Atom   0C    basis set group =>   1
Atom   1C    basis set group =>   1
Atom   2H    basis set group =>   2
Atom   3H    basis set group =>   2
Atom   4H    basis set group =>   2
Atom   5O    basis set group =>   3
Atom   6Cl   basis set group =>   4
----------------------------------
AUXILIARY/JK BASIS SET INFORMATION
----------------------------------
There are 4 groups of distinct atoms

 Group   1 Type C   : 14s10p6d2f1g contracted to 10s8p5d1f1g pattern {5111111111/31111111/21111/2/1}
 Group   2 Type H   : 4s2p2d contracted to 2s2p2d pattern {31/11/11}
 Group   3 Type O   : 14s10p6d2f1g contracted to 10s8p4d2f1g pattern {5111111111/31111111/3111/11/1}
 Group   4 Type Cl  : 16s12p10d4f1g contracted to 13s11p9d4f1g pattern {4111111111111/21111111111/211111111/1111/1}

Atom   0C    basis set group =>   1
Atom   1C    basis set group =>   1
Atom   2H    basis set group =>   2
Atom   3H    basis set group =>   2
Atom   4H    basis set group =>   2
Atom   5O    basis set group =>   3
Atom   6Cl   basis set group =>   4


           ************************************************************
           *        Program running with 24 parallel MPI-processes    *
           *              working on a common directory               *
           ************************************************************
------------------------------------------------------------------------------
                           ORCA GTO INTEGRAL CALCULATION
                           -- RI-GTO INTEGRALS CHOSEN --
------------------------------------------------------------------------------

                         BASIS SET STATISTICS AND STARTUP INFO

Gaussian basis set:
 # of primitive gaussian shells          ...  124
 # of primitive gaussian functions       ...  288
 # of contracted shells                  ...   78
 # of contracted basis functions         ...  216
 Highest angular momentum                ...    3
 Maximum contraction depth               ...    7
Auxiliary gaussian basis set:
 # of primitive gaussian shells          ...  166
 # of primitive gaussian functions       ...  490
 # of contracted shells                  ...  131
 # of contracted aux-basis functions     ...  409
 Highest angular momentum                ...    4
 Maximum contraction depth               ...    5
Ratio of auxiliary to basis functions    ...  1.89
Integral package used                  ... LIBINT
 One Electron integrals                  ... done
 Ordering auxiliary basis shells         ... done
 Integral threshhold             Thresh  ...  1.000e-10
 Primitive cut-off               TCut    ...  1.000e-11
 Pre-screening matrix                    ... done
 Shell pair data                         ... 
 Ordering of the shell pairs             ... done (   0.000 sec) 2988 of 3081 pairs
 Determination of significant pairs      ... done (   0.000 sec)
 Creation of shell pair data             ... done (   0.000 sec)
 Storage of shell pair data              ... done (   0.023 sec)
 Shell pair data done in (   0.024 sec)
 Computing two index integrals           ... done
 Cholesky decomposition of the V-matrix  ... done


Timings:
 Total evaluation time                   ...   0.177 sec (  0.003 min)
 One electron matrix time                ...   0.017 sec (  0.000 min) =  9.3%
 Schwartz matrix evaluation time         ...   0.105 sec (  0.002 min) = 59.2%
 Two index repulsion integral time       ...   0.003 sec (  0.000 min) =  1.6%
 Cholesky decomposition of V             ...   0.003 sec (  0.000 min) =  1.5%
 Three index repulsion integral time     ...   0.000 sec (  0.000 min) =  0.0%



           ************************************************************
           *        Program running with 24 parallel MPI-processes    *
           *              working on a common directory               *
           ************************************************************
-------------------------------------------------------------------------------
                                 ORCA SCF
-------------------------------------------------------------------------------

------------
SCF SETTINGS
------------
Hamiltonian:
 Density Functional     Method          .... DFT(GTOs)
 Exchange Functional    Exchange        .... B88
   X-Alpha parameter    XAlpha          ....  0.666667
   Becke's b parameter  XBeta           ....  0.004200
 Correlation Functional Correlation     .... LYP
 LDA part of GGA corr.  LDAOpt          .... VWN-5
 Gradients option       PostSCFGGA      .... off
 Hybrid DFT is turned on
   Fraction HF Exchange ScalHFX         ....  0.710000
   Scaling of DF-GGA-X  ScalDFX         ....  0.290000
   Scaling of DF-GGA-C  ScalDFC         ....  0.540000
   Scaling of DF-LDA-C  ScalLDAC        ....  0.540000
   Perturbative correction              ....  1.000000
   Density functional embedding theory  .... OFF
 RI-approximation to the Coulomb term is turned on
   Number of auxiliary basis functions  .... 409
   RI-JK (J+K treated both via RI)      .... on


General Settings:
 Integral files         IntName         .... MOR01_accl
 Hartree-Fock type      HFTyp           .... RHF
 Total Charge           Charge          ....    0
 Multiplicity           Mult            ....    1
 Number of Electrons    NEL             ....   40
 Basis Dimension        Dim             ....  216
 Nuclear Repulsion      ENuc            ....    147.8518070522 Eh

Convergence Acceleration:
 DIIS                   CNVDIIS         .... on
   Start iteration      DIISMaxIt       ....    12
   Startup error        DIISStart       ....  0.200000
   # of expansion vecs  DIISMaxEq       ....     5
   Bias factor          DIISBfac        ....   1.050
   Max. coefficient     DIISMaxC        ....  10.000
 Newton-Raphson         CNVNR           .... off
 SOSCF                  CNVSOSCF        .... on
   Start iteration      SOSCFMaxIt      ....   150
   Startup grad/error   SOSCFStart      ....  0.003300
 Level Shifting         CNVShift        .... on
   Level shift para.    LevelShift      ....    0.2500
   Turn off err/grad.   ShiftErr        ....    0.0010
 Zerner damping         CNVZerner       .... off
 Static damping         CNVDamp         .... on
   Fraction old density DampFac         ....    0.7000
   Max. Damping (<1)    DampMax         ....    0.9800
   Min. Damping (>=0)   DampMin         ....    0.0000
   Turn off err/grad.   DampErr         ....    0.1000
 Fernandez-Rico         CNVRico         .... off

SCF Procedure:
 Maximum # iterations   MaxIter         ....   125
 SCF integral mode      SCFMode         .... Direct
   Integral package                     .... LIBINT
 Reset frequency        DirectResetFreq ....    20
 Integral Threshold     Thresh          ....  1.000e-10 Eh
 Primitive CutOff       TCut            ....  1.000e-11 Eh

Convergence Tolerance:
 Convergence Check Mode ConvCheckMode   .... Total+1el-Energy
 Convergence forced     ConvForced      .... 0
 Energy Change          TolE            ....  1.000e-06 Eh
 1-El. energy change                    ....  1.000e-03 Eh
 Orbital Gradient       TolG            ....  5.000e-05
 Orbital Rotation angle TolX            ....  5.000e-05
 DIIS Error             TolErr          ....  1.000e-06


Diagonalization of the overlap matrix:
Smallest eigenvalue                        ... 1.309e-05
Time for diagonalization                   ...    0.010 sec
Threshold for overlap eigenvalues          ... 1.000e-08
Number of eigenvalues below threshold      ... 0
Time for construction of square roots      ...    0.006 sec
Total time needed                          ...    0.016 sec

-------------------
DFT GRID GENERATION
-------------------

General Integration Accuracy     IntAcc      ...  4.670
Radial Grid Type                 RadialGrid  ... Gauss-Chebyshev
Angular Grid (max. acc.)         AngularGrid ... Lebedev-302
Angular grid pruning method      GridPruning ... 3 (G Style)
Weight generation scheme         WeightScheme... Becke
Basis function cutoff            BFCut       ...    1.0000e-10
Integration weight cutoff        WCut        ...    1.0000e-14
Grids for H and He will be reduced by one unit

# of grid points (after initial pruning)     ...  35556 (   0.0 sec)
# of grid points (after weights+screening)   ...  34186 (   0.0 sec)
nearest neighbour list constructed           ...    0.0 sec
Grid point re-assignment to atoms done       ...    0.0 sec
Grid point division into batches done        ...    0.1 sec
Reduced shell lists constructed in    0.2 sec

Total number of grid points                  ...    34186
Total number of batches                      ...      536
Average number of points per batch           ...       63
Average number of grid points per atom       ...     4884
Average number of shells per batch           ...    64.17 (82.26%)
Average number of basis functions per batch  ...   183.17 (84.80%)
Average number of large shells per batch     ...    59.75 (93.12%)
Average number of large basis fcns per batch ...   168.50 (91.99%)
Average number of aux-shells per batch       ...    64.17 (48.98%)
Average number of aux functions per batch    ...   183.17 (44.78%)
Maximum spatial batch extension              ...   1.41,  1.40,  1.88 au
Average spatial batch extension              ...   0.05,  0.04,  0.05 au

Time for grid setup =    0.215 sec

------------------------------
INITIAL GUESS: MODEL POTENTIAL
------------------------------
Loading Hartree-Fock densities                     ... done
Calculating cut-offs                               ... done
Setting up the integral package                    ... done
Initializing the effective Hamiltonian             ... done
Starting the Coulomb interaction                   ... done (   0.0 sec)
Reading the grid                                   ... done
Mapping shells                                     ... done
Starting the XC term evaluation                    ... done (   0.0 sec)
  promolecular density results
     # of electrons  =     39.998500665
     EX              =    -46.861575230
     EC              =     -0.183769887
     EX+EC           =    -47.045345118
Transforming the Hamiltonian                       ... done (   0.0 sec)
Diagonalizing the Hamiltonian                      ... done (   0.0 sec)
Back transforming the eigenvectors                 ... done (   0.0 sec)
Now organizing SCF variables                       ... done
                      ------------------
                      INITIAL GUESS DONE (   0.3 sec)
                      ------------------
--------------
SCF ITERATIONS
--------------
ITER       Energy         Delta-E        Max-DP      RMS-DP      [F,P]     Damp
  0   -612.5913738043   0.000000000000 0.04747762  0.00090718  0.2825551 0.7000
  1   -612.5185244141   0.072849390135 0.04502149  0.00087712  0.2376856 0.7000
                               ***Turning on DIIS***
  2   -612.5498663015  -0.031341887416 0.02697867  0.00056843  0.1151030 0.7000
  3   -612.6234551557  -0.073588854141 0.06439425  0.00109100  0.0358897 0.0000
  4   -612.7311279757  -0.107672820040 0.01487038  0.00034036  0.0536433 0.0000
  5   -612.7362301986  -0.005102222906 0.01009975  0.00020173  0.0360564 0.0000
  6   -612.7380250553  -0.001794856632 0.00479391  0.00010843  0.0155554 0.0000
  7   -612.7384431560  -0.000418100719 0.00163979  0.00004397  0.0053373 0.0000
                      *** Initiating the SOSCF procedure ***
                           *** Shutting down DIIS ***
                      *** Re-Reading the Fockian *** 
                      *** Removing any level shift *** 
ITER      Energy       Delta-E        Grad      Rot      Max-DP    RMS-DP
  8   -612.73849788  -0.0000547289  0.000983  0.000983  0.000743  0.000022
  9   -612.73850724  -0.0000093598  0.000452  0.000818  0.000494  0.000011
 10   -612.73850890  -0.0000016595  0.000167  0.000345  0.000324  0.000009
 11   -612.73850949  -0.0000005872  0.000049  0.000043  0.000147  0.000003
                 **** Energy Check signals convergence ****
              ***Rediagonalizing the Fockian in SOSCF/NRSCF***

               *****************************************************
               *                     SUCCESS                       *
               *           SCF CONVERGED AFTER  12 CYCLES          *
               *****************************************************


----------------
TOTAL SCF ENERGY
----------------

Total Energy       :         -612.73850956 Eh          -16673.46251 eV

Components:
Nuclear Repulsion  :          147.85180705 Eh            4023.25221 eV
Electronic Energy  :         -760.59031661 Eh          -20696.71472 eV
One Electron Energy:        -1136.39626889 Eh          -30922.91457 eV
Two Electron Energy:          375.80595227 Eh           10226.19985 eV

Virial components:
Potential Energy   :        -1224.59810469 Eh          -33323.00854 eV
Kinetic Energy     :          611.85959513 Eh           16649.54603 eV
Virial Ratio       :            2.00143646


DFT components:
N(Alpha)           :       19.999999401732 electrons
N(Beta)            :       19.999999401732 electrons
N(Total)           :       39.999998803463 electrons
E(X)               :      -13.698846184067 Eh       
E(C)               :       -0.803288784129 Eh       
E(XC)              :      -14.502134968196 Eh       
DFET-embed. en.    :        0.000000000000 Eh       

---------------
SCF CONVERGENCE
---------------

  Last Energy change         ...   -6.7575e-08  Tolerance :   1.0000e-06
  Last MAX-Density change    ...    7.8526e-05  Tolerance :   1.0000e-05
  Last RMS-Density change    ...    1.4445e-06  Tolerance :   1.0000e-06
  Last Orbital Gradient      ...    1.4560e-05  Tolerance :   5.0000e-05
  Last Orbital Rotation      ...    2.4262e-05  Tolerance :   5.0000e-05

             **** THE GBW FILE WAS UPDATED (MOR01_accl.gbw) ****
             **** DENSITY FILE WAS UPDATED (MOR01_accl.scfp) ****
             **** ENERGY FILE WAS UPDATED (MOR01_accl.en.tmp) ****
             **** THE GBW FILE WAS UPDATED (MOR01_accl.gbw) ****
             **** DENSITY FILE WAS UPDATED (MOR01_accl.scfp) ****
----------------
ORBITAL ENERGIES
----------------

  NO   OCC          E(Eh)            E(eV) 
   0   2.0000    -103.658707     -2820.6968 
   1   2.0000     -20.089129      -546.6530 
   2   2.0000     -11.033691      -300.2420 
   3   2.0000     -10.895014      -296.4684 
   4   2.0000     -10.174476      -276.8616 
   5   2.0000      -7.747906      -210.8312 
   6   2.0000      -7.744438      -210.7369 
   7   2.0000      -7.744049      -210.7263 
   8   2.0000      -1.328117       -36.1399 
   9   2.0000      -1.033490       -28.1227 
  10   2.0000      -0.942103       -25.6359 
  11   2.0000      -0.706401       -19.2221 
  12   2.0000      -0.618829       -16.8392 
  13   2.0000      -0.607740       -16.5374 
  14   2.0000      -0.590479       -16.0678 
  15   2.0000      -0.532905       -14.5011 
  16   2.0000      -0.505260       -13.7488 
  17   2.0000      -0.421131       -11.4595 
  18   2.0000      -0.420290       -11.4367 
  19   2.0000      -0.404494       -11.0068 
  20   0.0000       0.035136         0.9561 
  21   0.0000       0.047231         1.2852 
  22   0.0000       0.057712         1.5704 
  23   0.0000       0.067723         1.8428 
  24   0.0000       0.078442         2.1345 
  25   0.0000       0.080356         2.1866 
  26   0.0000       0.099065         2.6957 
  27   0.0000       0.116098         3.1592 
  28   0.0000       0.117274         3.1912 
  29   0.0000       0.127843         3.4788 
  30   0.0000       0.137864         3.7515 
  31   0.0000       0.163350         4.4450 
  32   0.0000       0.175330         4.7710 
  33   0.0000       0.180593         4.9142 
  34   0.0000       0.199526         5.4294 
  35   0.0000       0.217731         5.9247 
  36   0.0000       0.233283         6.3479 
  37   0.0000       0.239184         6.5085 
  38   0.0000       0.259461         7.0603 
  39   0.0000       0.283657         7.7187 
  40   0.0000       0.286614         7.7992 
  41   0.0000       0.294313         8.0087 
  42   0.0000       0.300410         8.1746 
  43   0.0000       0.313923         8.5423 
  44   0.0000       0.324083         8.8187 
  45   0.0000       0.336670         9.1613 
  46   0.0000       0.338020         9.1980 
  47   0.0000       0.344787         9.3821 
  48   0.0000       0.349339         9.5060 
  49   0.0000       0.372289        10.1305 
  50   0.0000       0.376328        10.2404 
  51   0.0000       0.389724        10.6049 
  52   0.0000       0.392380        10.6772 
  53   0.0000       0.399422        10.8688 
  54   0.0000       0.431529        11.7425 
  55   0.0000       0.435475        11.8499 
  56   0.0000       0.453536        12.3413 
  57   0.0000       0.455660        12.3991 
  58   0.0000       0.461978        12.5711 
  59   0.0000       0.473360        12.8808 
  60   0.0000       0.516923        14.0662 
  61   0.0000       0.529645        14.4124 
  62   0.0000       0.548636        14.9291 
  63   0.0000       0.581726        15.8296 
  64   0.0000       0.585291        15.9266 
  65   0.0000       0.598432        16.2842 
  66   0.0000       0.628269        17.0961 
  67   0.0000       0.635964        17.3055 
  68   0.0000       0.640552        17.4303 
  69   0.0000       0.655729        17.8433 
  70   0.0000       0.665228        18.1018 
  71   0.0000       0.686301        18.6752 
  72   0.0000       0.721228        19.6256 
  73   0.0000       0.735498        20.0139 
  74   0.0000       0.755527        20.5589 
  75   0.0000       0.756264        20.5790 
  76   0.0000       0.785351        21.3705 
  77   0.0000       0.793601        21.5950 
  78   0.0000       0.794650        21.6235 
  79   0.0000       0.796020        21.6608 
  80   0.0000       0.803030        21.8516 
  81   0.0000       0.826621        22.4935 
  82   0.0000       0.880232        23.9523 
  83   0.0000       0.899424        24.4746 
  84   0.0000       0.899856        24.4863 
  85   0.0000       0.933268        25.3955 
  86   0.0000       0.959952        26.1216 
  87   0.0000       1.011797        27.5324 
  88   0.0000       1.016691        27.6656 
  89   0.0000       1.089250        29.6400 
  90   0.0000       1.096307        29.8320 
  91   0.0000       1.109921        30.2025 
  92   0.0000       1.211064        32.9547 
  93   0.0000       1.212884        33.0043 
  94   0.0000       1.248089        33.9622 
  95   0.0000       1.259840        34.2820 
  96   0.0000       1.276813        34.7438 
  97   0.0000       1.299576        35.3633 
  98   0.0000       1.338971        36.4353 
  99   0.0000       1.391886        37.8751 
 100   0.0000       1.396687        38.0058 
 101   0.0000       1.477866        40.2148 
 102   0.0000       1.601753        43.5859 
 103   0.0000       1.605311        43.6827 
 104   0.0000       1.620169        44.0870 
 105   0.0000       1.669363        45.4257 
 106   0.0000       1.692078        46.0438 
 107   0.0000       1.706921        46.4477 
 108   0.0000       1.749989        47.6196 
 109   0.0000       1.818942        49.4959 
 110   0.0000       1.892041        51.4851 
 111   0.0000       1.941797        52.8390 
 112   0.0000       1.948046        53.0090 
 113   0.0000       2.052456        55.8502 
 114   0.0000       2.087481        56.8032 
 115   0.0000       2.113594        57.5138 
 116   0.0000       2.114122        57.5282 
 117   0.0000       2.132447        58.0268 
 118   0.0000       2.143124        58.3174 
 119   0.0000       2.160295        58.7846 
 120   0.0000       2.199939        59.8634 
 121   0.0000       2.207332        60.0645 
 122   0.0000       2.224418        60.5295 
 123   0.0000       2.248726        61.1909 
 124   0.0000       2.307321        62.7854 
 125   0.0000       2.308818        62.8261 
 126   0.0000       2.378540        64.7234 
 127   0.0000       2.415290        65.7234 
 128   0.0000       2.510489        68.3139 
 129   0.0000       2.519487        68.5587 
 130   0.0000       2.616336        71.1941 
 131   0.0000       2.635585        71.7179 
 132   0.0000       2.654214        72.2248 
 133   0.0000       2.681761        72.9744 
 134   0.0000       2.715305        73.8872 
 135   0.0000       2.846227        77.4498 
 136   0.0000       2.898994        78.8856 
 137   0.0000       2.901121        78.9435 
 138   0.0000       2.935506        79.8792 
 139   0.0000       2.951905        80.3254 
 140   0.0000       3.005526        81.7845 
 141   0.0000       3.023401        82.2709 
 142   0.0000       3.086684        83.9929 
 143   0.0000       3.103811        84.4590 
 144   0.0000       3.195805        86.9623 
 145   0.0000       3.219372        87.6036 
 146   0.0000       3.265188        88.8503 
 147   0.0000       3.265778        88.8663 
 148   0.0000       3.298605        89.7596 
 149   0.0000       3.352370        91.2226 
 150   0.0000       3.380688        91.9932 
 151   0.0000       3.427902        93.2780 
 152   0.0000       3.477074        94.6160 
 153   0.0000       3.495441        95.1158 
 154   0.0000       3.509229        95.4910 
 155   0.0000       3.578105        97.3652 
 156   0.0000       3.592402        97.7542 
 157   0.0000       3.638089        98.9974 
 158   0.0000       3.704869       100.8146 
 159   0.0000       3.716546       101.1324 
 160   0.0000       3.741257       101.8048 
 161   0.0000       3.800399       103.4141 
 162   0.0000       3.808000       103.6209 
 163   0.0000       3.908852       106.3653 
 164   0.0000       3.994266       108.6895 
 165   0.0000       4.070128       110.7538 
 166   0.0000       4.084697       111.1503 
 167   0.0000       4.156462       113.1031 
 168   0.0000       4.167585       113.4057 
 169   0.0000       4.204957       114.4227 
 170   0.0000       4.296106       116.9030 
 171   0.0000       4.301719       117.0557 
 172   0.0000       4.366311       118.8134 
 173   0.0000       4.369140       118.8903 
 174   0.0000       4.473700       121.7356 
 175   0.0000       4.566170       124.2518 
 176   0.0000       4.602587       125.2428 
 177   0.0000       4.623063       125.8000 
 178   0.0000       4.799083       130.5897 
 179   0.0000       4.834466       131.5525 
 180   0.0000       4.897985       133.2810 
 181   0.0000       5.022766       136.6764 
 182   0.0000       5.080019       138.2343 
 183   0.0000       5.286456       143.8518 
 184   0.0000       5.368211       146.0765 
 185   0.0000       5.417841       147.4269 
 186   0.0000       5.441819       148.0794 
 187   0.0000       5.448469       148.2604 
 188   0.0000       5.510593       149.9508 
 189   0.0000       5.533739       150.5807 
 190   0.0000       5.574832       151.6989 
 191   0.0000       5.613299       152.7456 
 192   0.0000       5.834426       158.7628 
 193   0.0000       5.894702       160.4030 
 194   0.0000       5.910401       160.8302 
 195   0.0000       5.951573       161.9505 
 196   0.0000       6.528971       177.6623 
 197   0.0000       6.737631       183.3403 
 198   0.0000       6.792435       184.8315 
 199   0.0000       6.803957       185.1451 
 200   0.0000       6.884452       187.3355 
 201   0.0000       7.146505       194.4663 
 202   0.0000       7.310981       198.9419 
 203   0.0000       7.513047       204.4404 
 204   0.0000       8.532792       232.1891 
 205   0.0000       8.542595       232.4558 
 206   0.0000       8.554867       232.7898 
 207   0.0000       8.635221       234.9763 
 208   0.0000       8.675216       236.0646 
 209   0.0000      11.370268       309.4007 
 210   0.0000      11.479743       312.3797 
 211   0.0000      11.828030       321.8571 
 212   0.0000      23.611913       642.5128 
 213   0.0000      24.308467       661.4670 
 214   0.0000      26.764735       728.3055 
 215   0.0000      45.116859      1227.6922 

                    ********************************
                    * MULLIKEN POPULATION ANALYSIS *
                    ********************************

-----------------------
MULLIKEN ATOMIC CHARGES
-----------------------
   0 C :   -0.165792
   1 C :    0.712568
   2 H :    0.061717
   3 H :    0.088646
   4 H :    0.088497
   5 O :   -0.455246
   6 Cl:   -0.330391
Sum of atomic charges:   -0.0000000

--------------------------------
MULLIKEN REDUCED ORBITAL CHARGES
--------------------------------
  0 C s       :     2.917658  s :     2.917658
      pz      :     1.119894  p :     3.143846
      px      :     1.067591
      py      :     0.956361
      dz2     :     0.020598  d :     0.100416
      dxz     :     0.014933
      dyz     :     0.023044
      dx2y2   :     0.024945
      dxy     :     0.016897
      f0      :     0.000170  f :     0.003872
      f+1     :     0.000465
      f-1     :     0.000935
      f+2     :     0.000265
      f-2     :     0.000204
      f+3     :     0.001126
      f-3     :     0.000707
  1 C s       :     3.006708  s :     3.006708
      pz      :     0.637702  p :     2.071114
      px      :     0.671984
      py      :     0.761429
      dz2     :     0.003937  d :     0.189925
      dxz     :     0.014848
      dyz     :     0.047419
      dx2y2   :     0.057595
      dxy     :     0.066126
      f0      :     0.002457  f :     0.019686
      f+1     :     0.001038
      f-1     :     0.001452
      f+2     :     0.002493
      f-2     :     0.001433
      f+3     :     0.004718
      f-3     :     0.006095
  2 H s       :     0.884891  s :     0.884891
      pz      :     0.013310  p :     0.051436
      px      :     0.028879
      py      :     0.009247
      dz2     :     0.000118  d :     0.001955
      dxz     :     0.000654
      dyz     :     0.000056
      dx2y2   :     0.000464
      dxy     :     0.000664
  3 H s       :     0.863405  s :     0.863405
      pz      :     0.022075  p :     0.045965
      px      :     0.009069
      py      :     0.014821
      dz2     :     0.000639  d :     0.001985
      dxz     :     0.000400
      dyz     :     0.000453
      dx2y2   :     0.000256
      dxy     :     0.000237
  4 H s       :     0.863514  s :     0.863514
      pz      :     0.022121  p :     0.046005
      px      :     0.009110
      py      :     0.014774
      dz2     :     0.000639  d :     0.001985
      dxz     :     0.000402
      dyz     :     0.000454
      dx2y2   :     0.000254
      dxy     :     0.000235
  5 O s       :     3.961061  s :     3.961061
      pz      :     1.359838  p :     4.447272
      px      :     1.720566
      py      :     1.366868
      dz2     :     0.002984  d :     0.044730
      dxz     :     0.001697
      dyz     :     0.017370
      dx2y2   :     0.011348
      dxy     :     0.011331
      f0      :     0.000215  f :     0.002183
      f+1     :     0.000040
      f-1     :     0.000174
      f+2     :     0.000360
      f-2     :     0.000212
      f+3     :     0.000582
      f-3     :     0.000600
  6 Cls       :     6.025342  s :     6.025342
      pz      :     3.931427  p :    11.257031
      px      :     3.356488
      py      :     3.969116
      dz2     :     0.006965  d :     0.044010
      dxz     :     0.007370
      dyz     :     0.000610
      dx2y2   :     0.021014
      dxy     :     0.008051
      f0      :     0.000250  f :     0.004007
      f+1     :     0.000872
      f-1     :     0.000075
      f+2     :     0.000351
      f-2     :     0.000098
      f+3     :     0.001413
      f-3     :     0.000947


                     *******************************
                     * LOEWDIN POPULATION ANALYSIS *
                     *******************************

----------------------
LOEWDIN ATOMIC CHARGES
----------------------
   0 C :    0.132487
   1 C :   -0.715051
   2 H :    0.000323
   3 H :   -0.004524
   4 H :   -0.004433
   5 O :    0.033859
   6 Cl:    0.557340

-------------------------------
LOEWDIN REDUCED ORBITAL CHARGES
-------------------------------
  0 C s       :     2.641205  s :     2.641205
      pz      :     0.927305  p :     2.716621
      px      :     0.913020
      py      :     0.876297
      dz2     :     0.084037  d :     0.479335
      dxz     :     0.036283
      dyz     :     0.104857
      dx2y2   :     0.145368
      dxy     :     0.108789
      f0      :     0.001192  f :     0.030352
      f+1     :     0.004994
      f-1     :     0.006178
      f+2     :     0.002673
      f-2     :     0.002850
      f+3     :     0.007318
      f-3     :     0.005146
  1 C s       :     2.734774  s :     2.734774
      pz      :     0.614928  p :     2.454944
      px      :     0.844558
      py      :     0.995458
      dz2     :     0.113378  d :     1.409600
      dxz     :     0.172873
      dyz     :     0.214612
      dx2y2   :     0.473099
      dxy     :     0.435638
      f0      :     0.009152  f :     0.115733
      f+1     :     0.005329
      f-1     :     0.009637
      f+2     :     0.013285
      f-2     :     0.009884
      f+3     :     0.029481
      f-3     :     0.038965
  2 H s       :     0.699215  s :     0.699215
      pz      :     0.073164  p :     0.271562
      px      :     0.127839
      py      :     0.070559
      dz2     :     0.002604  d :     0.028900
      dxz     :     0.008710
      dyz     :     0.000751
      dx2y2   :     0.008303
      dxy     :     0.008533
  3 H s       :     0.694449  s :     0.694449
      pz      :     0.113266  p :     0.281121
      px      :     0.080525
      py      :     0.087329
      dz2     :     0.009145  d :     0.028954
      dxz     :     0.005651
      dyz     :     0.007662
      dx2y2   :     0.003265
      dxy     :     0.003230
  4 H s       :     0.694408  s :     0.694408
      pz      :     0.113405  p :     0.281072
      px      :     0.080445
      py      :     0.087222
      dz2     :     0.009157  d :     0.028953
      dxz     :     0.005672
      dyz     :     0.007673
      dx2y2   :     0.003242
      dxy     :     0.003209
  5 O s       :     3.359701  s :     3.359701
      pz      :     1.238413  p :     4.350040
      px      :     1.577606
      py      :     1.534021
      dz2     :     0.030128  d :     0.250114
      dxz     :     0.006745
      dyz     :     0.034533
      dx2y2   :     0.088826
      dxy     :     0.089881
      f0      :     0.000417  f :     0.006286
      f+1     :     0.000229
      f-1     :     0.000927
      f+2     :     0.000510
      f-2     :     0.000328
      f+3     :     0.002051
      f-3     :     0.001825
  6 Cls       :     5.490321  s :     5.490321
      pz      :     3.738264  p :    10.769404
      px      :     3.282414
      py      :     3.748726
      dz2     :     0.027345  d :     0.175266
      dxz     :     0.031072
      dyz     :     0.004054
      dx2y2   :     0.060942
      dxy     :     0.051854
      f0      :     0.000418  f :     0.007669
      f+1     :     0.001743
      f-1     :     0.000178
      f+2     :     0.000543
      f-2     :     0.000140
      f+3     :     0.002730
      f-3     :     0.001917


                      *****************************
                      * MAYER POPULATION ANALYSIS *
                      *****************************

  NA   - Mulliken gross atomic population
  ZA   - Total nuclear charge
  QA   - Mulliken gross atomic charge
  VA   - Mayer's total valence
  BVA  - Mayer's bonded valence
  FA   - Mayer's free valence

  ATOM       NA         ZA         QA         VA         BVA        FA
  0 C      6.1658     6.0000    -0.1658     3.8676     3.8676    -0.0000
  1 C      5.2874     6.0000     0.7126     3.6533     3.6533    -0.0000
  2 H      0.9383     1.0000     0.0617     1.0962     1.0962    -0.0000
  3 H      0.9114     1.0000     0.0886     1.0664     1.0664     0.0000
  4 H      0.9115     1.0000     0.0885     1.0665     1.0665    -0.0000
  5 O      8.4552     8.0000    -0.4552     2.0732     2.0732     0.0000
  6 Cl    17.3304    17.0000    -0.3304     0.9186     0.9186    -0.0000

  Mayer bond orders larger than 0.100000
B(  0-C ,  1-C ) :   0.8977 B(  0-C ,  2-H ) :   1.0002 B(  0-C ,  3-H ) :   0.9778 
B(  0-C ,  4-H ) :   0.9777 B(  1-C ,  5-O ) :   1.9591 B(  1-C ,  6-Cl) :   0.7491 


-------
TIMINGS
-------

Total SCF time: 0 days 0 hours 0 min 3 sec 

Total time                  ....       3.099 sec
Sum of individual times     ....       2.959 sec  ( 95.5%)

Fock matrix formation       ....       2.519 sec  ( 81.3%)
  XC integration            ....       0.489 sec  ( 19.4% of F)
    Basis function eval.    ....       0.081 sec  ( 16.6% of XC)
    Density eval.           ....       0.065 sec  ( 13.3% of XC)
    XC-Functional eval.     ....       0.016 sec  (  3.3% of XC)
    XC-Potential eval.      ....       0.137 sec  ( 27.9% of XC)
Diagonalization             ....       0.054 sec  (  1.7%)
Density matrix formation    ....       0.012 sec  (  0.4%)
Population analysis         ....       0.007 sec  (  0.2%)
Initial guess               ....       0.112 sec  (  3.6%)
Orbital Transformation      ....       0.000 sec  (  0.0%)
Orbital Orthonormalization  ....       0.000 sec  (  0.0%)
DIIS solution               ....       0.025 sec  (  0.8%)
SOSCF solution              ....       0.016 sec  (  0.5%)
Grid generation             ....       0.215 sec  (  6.9%)


           ************************************************************
           *        Program running with 24 parallel MPI-processes    *
           *              working on a common directory               *
           ************************************************************

------------------------------------------------------------------------------
                                ORCA  MP2 
------------------------------------------------------------------------------

Freezing NCore=16 chemical core electrons

-------------
RI-MP2 ENERGY
-------------
Dimension of the basis                    ...  216
Memory devoted to MP2                     ... 5000 MB   
Data format for buffers                   ... DOUBLE
Compression type for matrix containers    ... UNCOMPRESSED
Scaling for aa/bb pairs                   ...   4.000e-01
Scaling for ab pairs                      ...   4.700e-01
Overall scaling of the MP2 energy         ...   1.000e+00
Calculating two index integrals           ... done (    0.003 sec)
Cholesky decomposition of V**-1           ... done (    0.072 sec)

-----------------
RI-TRANSFORMATION (AUX index driven)
-----------------

Dimension of the orbital-basis         ... 216
Dimension of the aux-basis             ... 532
Transformation of internal/external MOs...    8-  19 to   20- 215
Number Format for Storage              ... Double (8 Byte)
Integral mode                          ... Direct

First Phase: integral generation and transformation of MO indices
  Aux angular momentum 0               ... done (    0.003 sec)
  Aux angular momentum 1               ... done (    0.004 sec)
  Aux angular momentum 2               ... done (    0.006 sec)
  Aux angular momentum 3               ... done (    0.004 sec)
  Aux angular momentum 4               ... done (    0.006 sec)
Closing buffer VIA ( 0.01 GB; CompressionRatio= 1.00)
  Phase 1 completed in     0.126 sec
Second Phase: sorting and transformation of aux index

IA-Transformation
Memory available                       ... 4995 MB 
Max. # MO pairs treated in a batch     ... 1    
# of internal orbitals                 ... 12
# batches for internal orbitals        ... 1
Closing buffer IAV ( 0.00 GB; CompressionRatio= 1.00)
(ia|v) transformation done in     0.008 sec

  Phase 2 completed in     0.018 sec
RI-Integral transformation completed in     0.146 sec
Opening buffers                              ... done

Starting loop over batches of integrals:

Operator 0  - window                       ... (  8- 19)x( 20-215)
Operator 0  - Memory available             ...  5000 MB
Operator 0  - Memory needed per MO         ...   0.8 MB
Operator 0  - Number of orbitals per batch ... 1
Operator 0  - Number of batches            ... 1

OPERATOR  0   PASS   0:  MOs     8 ...    8 +    9 ...    9 +   10 ...   10 +   11 ...   11
                            +   12 ...   12 +   13 ...   13 +   14 ...   14 +   15 ...   15
                            +   16 ...   16 +   17 ...   17 +   18 ...   18 +   19 ...   19
  Reading integrals       ... ok
Time spent in pair loops =     0.004 sec
Deleting buffer (Ka|jb)[aa] ...done

-----------------------------------------------
 RI-MP2 CORRELATION ENERGY:     -0.385209440 Eh
-----------------------------------------------


-------
TIMINGS
-------

Total time                :    0.258 sec
Integral trafo            :    0.166 sec ( 64.1%)
I/O of integrals          :    0.001 sec (  0.3%)
K(i,j) Operators          :    0.001 sec (  0.3%)
T(i,j) pair energies      :    0.000 sec (  0.1%)
V-calculation             :    0.003 sec (  1.0%)
V**(-1/2)                 :    0.072 sec ( 27.7%)
Gamma(ia|P)               :    0.000 sec (  0.0%)
Gamma-Trafo               :    0.000 sec (  0.0%)
D(virtual)                :    0.000 sec (  0.0%)
D(internal)               :    0.000 sec (  0.0%)
W(virtual)                :    0.000 sec (  0.0%)
W(internal)               :    0.000 sec (  0.0%)
L(virtual)                :    0.000 sec (  0.0%)
L(internal)               :    0.000 sec (  0.0%)
G(D)                      :    0.000 sec (  0.0%)
G(Z)                      :    0.000 sec (  0.0%)
Z-Vector Solution         :    0.000 sec (  0.0%)
Z-Vector Solution         :    0.000 sec (  0.0%)
3-Index Derivative 
+ Separable RIJ part      :    0.000 sec (  0.0%)
2-Index Derivative 
+ Separable RIJ part      :    0.000 sec (  0.0%)
Separable Gradient (X)    :    0.000 sec (  0.0%)


---------------------------------------
MP2 TOTAL ENERGY:     -613.123718999 Eh
---------------------------------------


-------------------------------------------------------------------------------
                          DFT DISPERSION CORRECTION                            
                                                                               
                              DFTD3 V3.1  Rev 1                                
                          USING Becke-Johnson damping                          
-------------------------------------------------------------------------------
The DSD-BLYP/2013 functional is recognized
Active option DFTDOPT                   ...         4   

molecular C6(AA) [au] = 762.529206 


            DFT-D V3
 parameters
 s6 scaling factor         :     0.5700 
 a1 scaling factor         :     0.0000 
 s8 scaling factor         :     0.0000 
 a2 scaling factor         :     5.4000 
 ad hoc parameters k1-k3   :    16.0000     1.3333    -4.0000 

 Edisp/kcal,au: -3.151539216249  -0.005022296890 
 E6   /kcal   :  -3.151539216 
 E8   /kcal   :  -0.000000000 
 % E8         :   0.000000000 

-------------------------   ----------------
Dispersion correction           -0.005022297
-------------------------   ----------------


-------------------------   --------------------
FINAL SINGLE POINT ENERGY      -613.128741295620
-------------------------   --------------------


                            ***************************************
                            *     ORCA property calculations      *
                            ***************************************


  WARNING: The energy has been calculated at the MP2 level but the densities
           used in the property calculations are still SCF densities
           MP2 response densities have not been calculated 
           use %mp2 Density relaxed end
           or  %mp2 Density unrelaxed end

                                    ---------------------
                                    Active property flags
                                    ---------------------
   (+) Dipole Moment


------------------------------------------------------------------------------
                       ORCA ELECTRIC PROPERTIES CALCULATION
------------------------------------------------------------------------------

Dipole Moment Calculation                       ... on
Quadrupole Moment Calculation                   ... off
Polarizability Calculation                      ... off
GBWName                                         ... MOR01_accl.gbw
Electron density file                           ... MOR01_accl.scfp
The origin for moment calculation is the CENTER OF MASS  = (-0.152024,  0.090229 -0.000010)

-------------
DIPOLE MOMENT
-------------
                                X             Y             Z
Electronic contribution:     -5.51118       2.55001      -0.00036
Nuclear contribution   :      6.08095      -3.60915       0.00039
                        -----------------------------------------
Total Dipole Moment    :      0.56977      -1.05914       0.00003
                        -----------------------------------------
Magnitude (a.u.)       :      1.20267
Magnitude (Debye)      :      3.05694



--------------------
Rotational spectrum 
--------------------
 
Rotational constants in cm-1:     0.334975     0.160198     0.110601 
Rotational constants in MHz : 10042.310181  4802.622935  3315.727154 

 Dipole components along the rotational axes: 
x,y,z [a.u.] :    -0.456109    -1.112823     0.000039 
x,y,z [Debye]:    -1.159336    -2.828571     0.000100 

 

Timings for individual modules:

Sum of individual times         ...        5.036 sec (=   0.084 min)
GTO integral calculation        ...        0.577 sec (=   0.010 min)  11.5 %
SCF iterations                  ...        3.453 sec (=   0.058 min)  68.6 %
MP2 module                      ...        1.005 sec (=   0.017 min)  20.0 %
                             ****ORCA TERMINATED NORMALLY****
TOTAL RUN TIME: 0 days 0 hours 0 minutes 5 seconds 531 msec
