
                                 *****************
                                 * O   R   C   A *
                                 *****************

           --- An Ab Initio, DFT and Semiempirical electronic structure package ---

                  #######################################################
                  #                        -***-                        #
                  #          Department of theory and spectroscopy      #
                  #               Directorship: Frank Neese             #
                  #        Max Planck Institute fuer Kohlenforschung    #
                  #                Kaiser Wilhelm Platz 1               #
                  #                 D-45470 Muelheim/Ruhr               #
                  #                      Germany                        #
                  #                                                     #
                  #                  All rights reserved                #
                  #                        -***-                        #
                  #######################################################


                         Program Version 4.2.0 -  RELEASE  -


 With contributions from (in alphabetic order):
   Daniel Aravena         : Magnetic Suceptibility
   Michael Atanasov       : Ab Initio Ligand Field Theory (pilot matlab implementation)
   Alexander A. Auer      : GIAO ZORA, VPT2
   Ute Becker             : Parallelization
   Giovanni Bistoni       : ED, misc. LED, open-shell LED, HFLED
   Martin Brehm           : Molecular dynamics
   Dmytro Bykov           : SCF Hessian
   Vijay G. Chilkuri      : MRCI spin determinant printing, contributions to CSF-ICE
   Dipayan Datta          : RHF DLPNO-CCSD density
   Achintya Kumar Dutta   : EOM-CC, STEOM-CC
   Dmitry Ganyushin       : Spin-Orbit,Spin-Spin,Magnetic field MRCI
   Miquel Garcia          : C-PCM Hessian, Gaussian charge scheme
   Yang Guo               : DLPNO-NEVPT2, CIM, IAO-localization
   Andreas Hansen         : Spin unrestricted coupled pair/coupled cluster methods
   Benjamin Helmich-Paris : CASSCF linear response (MC-RPA)
   Lee Huntington         : MR-EOM, pCC
   Robert Izsak           : Overlap fitted RIJCOSX, COSX-SCS-MP3, EOM
   Christian Kollmar      : KDIIS, OOCD, Brueckner-CCSD(T), CCSD density
   Simone Kossmann        : Meta GGA functionals, TD-DFT gradient, OOMP2, MP2 Hessian
   Martin Krupicka        : AUTO-CI
   Lucas Lang             : DCDCAS
   Dagmar Lenk            : GEPOL surface, SMD
   Dimitrios Liakos       : Extrapolation schemes; Compound Job, initial MDCI parallelization
   Dimitrios Manganas     : Further ROCIS development; embedding schemes
   Dimitrios Pantazis     : SARC Basis sets
   Taras Petrenko         : DFT Hessian,TD-DFT gradient, ASA, ECA, R-Raman, ABS, FL, XAS/XES, NRVS
   Peter Pinski           : DLPNO-MP2, DLPNO-MP2 Gradient
   Christoph Reimann      : Effective Core Potentials
   Marius Retegan         : Local ZFS, SOC
   Christoph Riplinger    : Optimizer, TS searches, QM/MM, DLPNO-CCSD(T), (RO)-DLPNO pert. Triples
   Tobias Risthaus        : Range-separated hybrids, TD-DFT gradient, RPA, STAB
   Michael Roemelt        : Original ROCIS implementation
   Masaaki Saitow         : Open-shell DLPNO-CCSD energy and density
   Barbara Sandhoefer     : DKH picture change effects
   Avijit Sen             : IP-ROCIS
   Kantharuban Sivalingam : CASSCF convergence, NEVPT2, FIC-MRCI
   Bernardo de Souza      : ESD, SOC TD-DFT
   Georgi Stoychev        : AutoAux, RI-MP2 NMR
   Willem Van den Heuvel  : Paramagnetic NMR
   Boris Wezisla          : Elementary symmetry handling
   Frank Wennmohs         : Technical directorship


 We gratefully acknowledge several colleagues who have allowed us to
 interface, adapt or use parts of their codes:
   Stefan Grimme, W. Hujo, H. Kruse,             : VdW corrections, initial TS optimization,
                  C. Bannwarth                     DFT functionals, gCP, sTDA/sTD-DF
   Ed Valeev, F. Pavosevic, A. Kumar             : LibInt (2-el integral package), F12 methods
   Garnet Chan, S. Sharma, J. Yang, R. Olivares  : DMRG
   Ulf Ekstrom                                   : XCFun DFT Library
   Mihaly Kallay                                 : mrcc  (arbitrary order and MRCC methods)
   Andreas Klamt, Michael Diedenhofen            : otool_cosmo (COSMO solvation model)
   Jiri Pittner, Ondrej Demel                    : Mk-CCSD
   Frank Weinhold                                : gennbo (NPA and NBO analysis)
   Christopher J. Cramer and Donald G. Truhlar   : smd solvation model
   Lars Goerigk                                  : TD-DFT with DH, B97 family of functionals
   V. Asgeirsson, H. Jonsson                     : NEB implementation
   FAccTs GmbH                                   : IRC, NEB, NEB-TS, Multilevel, MM, QM/MM, CI optimization
   S Lehtola, MJT Oliveira, MAL Marques          : LibXC Library


 Your calculation uses the libint2 library for the computation of 2-el integrals
 For citations please refer to: http://libint.valeyev.net

 Your ORCA version has been built with support for libXC version: 4.2.3
 For citations please refer to: https://tddft.org/programs/libxc/

 This ORCA versions uses:
   CBLAS   interface :  Fast vector & matrix operations
   LAPACKE interface :  Fast linear algebra routines
   SCALAPACK package :  Parallel linear algebra routines


Your calculation utilizes the atom-pairwise dispersion correction
with the Becke-Johnson damping scheme (D3BJ)
Cite in your paper:
S.Grimme, S.Ehrlich, L.Goerigk, J Comput Chem, (2011), 32, 1456–1465 
S.Grimme, J.Antony, S.Ehrlich and H.Krieg, J.Chem.Phys., 132, (2010), 154104 
   

----- Orbital basis set information -----
Your calculation utilizes the basis: def2-TZVPPD
   F. Weigend and R. Ahlrichs, Phys. Chem. Chem. Phys. 7, 3297 (2005).
   D. Rappoport and F. Furche, J. Chem. Phys. 133 134105 (2010).

----- AuxC basis set information -----
Your calculation utilizes the auxiliary basis: def2-TZVPPD/C
   A. Hellweg, C. Hattig, S. Hofener and W. Klopper, Theor. Chem. Acc. 117, 587 (2007).

----- AuxJK basis set information -----
Your calculation utilizes the auxiliary basis: def2/JK
   H-Ba, Hf-Rn: F. Weigend, J. Comput. Chem. 29, 167 (2008).

================================================================================
                                        WARNINGS
                       Please study these warnings very carefully!
================================================================================


WARNING: No MP2 level density has been requested!
         To caclulate MP2 level properties use
         %mp2 Density relaxed end
         or
         %mp2 Density unrelaxed end
         Otherwise for double-hybrid DFT only the energy is correct!

WARNING: There are different parametrizations of Gershom Martin's DSD-DFs
         for use with and without D3(BJ)!
         You are using the D3(BJ) parametrized version,
         consistent with the 2013 article (S. Kozuch and J. M. L. Martin, JCC 2013, 34, 2327)

WARNING: The frozen-core approximation is turned on by default for 
         the MP2 part of double-hybrid DFT.

INFO   : the flag for use of LIBINT has been found!

================================================================================
                                       INPUT FILE
================================================================================
NAME = MOR07_ed01.in
|  1> #
|  2> # MOR07_ed01 ri-DSD-BLYP/2013-D3BJ/Def2-TZVPPD
|  3> #
|  4> ! rijk ri-dsd-blyp/2013 d3bj def2-tzvppd def2/jk def2-tzvppd/c grid4 nofinalgrid
|  5> 
|  6> *xyz 0 1
|  7> Cr      -0.000046    0.000041   -0.405569 
|  8> O       -2.277907    2.043130   -0.317819 
|  9> C       -1.422280    1.275470   -0.391359 
| 10> C       -0.000325   -0.000192    1.429559 
| 11> O       -0.000571   -0.000422    2.587655 
| 12> C        1.422359   -1.275089   -0.391211 
| 13> O        2.278285   -2.042429   -0.317709 
| 14> C        1.275390    1.422211   -0.390822 
| 15> O        2.043071    2.277781   -0.316760 
| 16> C       -1.275267   -1.422351   -0.391135 
| 17> O       -2.042647   -2.278220   -0.317434 
| 18> *
| 19> 
| 20> %maxcore 5000
| 21> 
| 22> %pal
| 23> nprocs = 24
| 24> end
| 25> 
| 26> 
| 27>                          ****END OF INPUT****
================================================================================

                       ****************************
                       * Single Point Calculation *
                       ****************************

---------------------------------
CARTESIAN COORDINATES (ANGSTROEM)
---------------------------------
  Cr    -0.000046    0.000041   -0.405569
  O     -2.277907    2.043130   -0.317819
  C     -1.422280    1.275470   -0.391359
  C     -0.000325   -0.000192    1.429559
  O     -0.000571   -0.000422    2.587655
  C      1.422359   -1.275089   -0.391211
  O      2.278285   -2.042429   -0.317709
  C      1.275390    1.422211   -0.390822
  O      2.043071    2.277781   -0.316760
  C     -1.275267   -1.422351   -0.391135
  O     -2.042647   -2.278220   -0.317434

----------------------------
CARTESIAN COORDINATES (A.U.)
----------------------------
  NO LB      ZA    FRAG     MASS         X           Y           Z
   0 Cr   24.0000    0    52.000   -0.000087    0.000077   -0.766414
   1 O     8.0000    0    15.999   -4.304620    3.860956   -0.600591
   2 C     6.0000    0    12.011   -2.687720    2.410289   -0.739561
   3 C     6.0000    0    12.011   -0.000614   -0.000363    2.701475
   4 O     8.0000    0    15.999   -0.001079   -0.000797    4.889959
   5 C     6.0000    0    12.011    2.687869   -2.409569   -0.739282
   6 O     8.0000    0    15.999    4.305335   -3.859631   -0.600383
   7 C     6.0000    0    12.011    2.410138    2.687589   -0.738547
   8 O     8.0000    0    15.999    3.860845    4.304382   -0.598590
   9 C     6.0000    0    12.011   -2.409905   -2.687854   -0.739138
  10 O     8.0000    0    15.999   -3.860043   -4.305212   -0.599863

--------------------------------
INTERNAL COORDINATES (ANGSTROEM)
--------------------------------
 Cr     0   0   0     0.000000000000     0.00000000     0.00000000
 O      1   0   0     3.061137608756     0.00000000     0.00000000
 C      2   1   0     1.151871334103     2.01783897     0.00000000
 C      1   2   3     1.835128036000    88.35571758   180.24238282
 O      4   1   2     1.158096048967   179.99463193    91.76122125
 C      1   2   3     1.910339931292   177.92665485   179.81632214
 O      6   1   4     1.151877830796   176.77207242     0.00000000
 C      1   2   3     1.910372207975    89.98385338    90.67316090
 O      8   1   2     1.151876435433   176.75578430    88.60960898
 C      1   2   3     1.910391567418    90.00030062   269.79805641
 O     10   1   2     1.151874839973   176.76441128   271.68563110

---------------------------
INTERNAL COORDINATES (A.U.)
---------------------------
 Cr     0   0   0     0.000000000000     0.00000000     0.00000000
 O      1   0   0     5.784711738796     0.00000000     0.00000000
 C      2   1   0     2.176721362970     2.01783897     0.00000000
 C      1   2   3     3.467889408721    88.35571758   180.24238282
 O      4   1   2     2.188484369323   179.99463193    91.76122125
 C      1   2   3     3.610019292836   177.92665485   179.81632214
 O      6   1   4     2.176733639940   176.77207242     0.00000000
 C      1   2   3     3.610080286928    89.98385338    90.67316090
 O      8   1   2     2.176731003085   176.75578430    88.60960898
 C      1   2   3     3.610116870972    90.00030062   269.79805641
 O     10   1   2     2.176727988103   176.76441128   271.68563110

---------------------
BASIS SET INFORMATION
---------------------
There are 3 groups of distinct atoms

 Group   1 Type Cr  : 17s13p7d2f1g contracted to 6s6p4d2f1g pattern {842111/631111/4111/11/1}
 Group   2 Type O   : 12s7p3d1f contracted to 6s4p3d1f pattern {621111/4111/111/1}
 Group   3 Type C   : 12s6p3d1f contracted to 6s3p3d1f pattern {621111/411/111/1}

Atom   0Cr   basis set group =>   1
Atom   1O    basis set group =>   2
Atom   2C    basis set group =>   3
Atom   3C    basis set group =>   3
Atom   4O    basis set group =>   2
Atom   5C    basis set group =>   3
Atom   6O    basis set group =>   2
Atom   7C    basis set group =>   3
Atom   8O    basis set group =>   2
Atom   9C    basis set group =>   3
Atom  10O    basis set group =>   2
---------------------------------
AUXILIARY/C BASIS SET INFORMATION
---------------------------------
There are 3 groups of distinct atoms

 Group   1 Type Cr  : 10s10p9d7f5g3h1i contracted to 10s10p9d7f5g3h1i pattern {1111111111/1111111111/111111111/1111111/11111/111/1}
 Group   2 Type O   : 9s7p6d4f1g contracted to 9s7p5d4f1g pattern {111111111/1111111/21111/1111/1}
 Group   3 Type C   : 9s7p6d4f1g contracted to 9s7p5d4f1g pattern {111111111/1111111/21111/1111/1}

Atom   0Cr   basis set group =>   1
Atom   1O    basis set group =>   2
Atom   2C    basis set group =>   3
Atom   3C    basis set group =>   3
Atom   4O    basis set group =>   2
Atom   5C    basis set group =>   3
Atom   6O    basis set group =>   2
Atom   7C    basis set group =>   3
Atom   8O    basis set group =>   2
Atom   9C    basis set group =>   3
Atom  10O    basis set group =>   2
----------------------------------
AUXILIARY/JK BASIS SET INFORMATION
----------------------------------
There are 3 groups of distinct atoms

 Group   1 Type Cr  : 19s14p12d10f7g3h1i contracted to 16s13p11d9f5g3h1i pattern {4111111111111111/2111111111111/21111111111/211111111/31111/111/1}
 Group   2 Type O   : 14s10p6d2f1g contracted to 10s8p4d2f1g pattern {5111111111/31111111/3111/11/1}
 Group   3 Type C   : 14s10p6d2f1g contracted to 10s8p5d1f1g pattern {5111111111/31111111/21111/2/1}

Atom   0Cr   basis set group =>   1
Atom   1O    basis set group =>   2
Atom   2C    basis set group =>   3
Atom   3C    basis set group =>   3
Atom   4O    basis set group =>   2
Atom   5C    basis set group =>   3
Atom   6O    basis set group =>   2
Atom   7C    basis set group =>   3
Atom   8O    basis set group =>   2
Atom   9C    basis set group =>   3
Atom  10O    basis set group =>   2


           ************************************************************
           *        Program running with 24 parallel MPI-processes    *
           *              working on a common directory               *
           ************************************************************
------------------------------------------------------------------------------
                           ORCA GTO INTEGRAL CALCULATION
                           -- RI-GTO INTEGRALS CHOSEN --
------------------------------------------------------------------------------

                         BASIS SET STATISTICS AND STARTUP INFO

Gaussian basis set:
 # of primitive gaussian shells          ...  265
 # of primitive gaussian functions       ...  649
 # of contracted shells                  ...  154
 # of contracted basis functions         ...  452
 Highest angular momentum                ...    4
 Maximum contraction depth               ...    8
Auxiliary gaussian basis set:
 # of primitive gaussian shells          ...  396
 # of primitive gaussian functions       ... 1270
 # of contracted shells                  ...  308
 # of contracted aux-basis functions     ... 1024
 Highest angular momentum                ...    6
 Maximum contraction depth               ...    5
Ratio of auxiliary to basis functions    ...  2.27
Integral package used                  ... LIBINT
 One Electron integrals                  ... done
 Ordering auxiliary basis shells         ... done
 Integral threshhold             Thresh  ...  1.000e-10
 Primitive cut-off               TCut    ...  1.000e-11
 Pre-screening matrix                    ... done
 Shell pair data                         ... 
 Ordering of the shell pairs             ... done (   0.002 sec) 10695 of 11935 pairs
 Determination of significant pairs      ... done (   0.000 sec)
 Creation of shell pair data             ... done (   0.001 sec)
 Storage of shell pair data              ... done (   0.003 sec)
 Shell pair data done in (   0.006 sec)
 Computing two index integrals           ... done
 Cholesky decomposition of the V-matrix  ... done


Timings:
 Total evaluation time                   ...   0.514 sec (  0.009 min)
 One electron matrix time                ...   0.132 sec (  0.002 min) = 25.7%
 Schwartz matrix evaluation time         ...   0.232 sec (  0.004 min) = 45.2%
 Two index repulsion integral time       ...   0.058 sec (  0.001 min) = 11.3%
 Cholesky decomposition of V             ...   0.053 sec (  0.001 min) = 10.3%
 Three index repulsion integral time     ...   0.000 sec (  0.000 min) =  0.0%



           ************************************************************
           *        Program running with 24 parallel MPI-processes    *
           *              working on a common directory               *
           ************************************************************
-------------------------------------------------------------------------------
                                 ORCA SCF
-------------------------------------------------------------------------------

------------
SCF SETTINGS
------------
Hamiltonian:
 Density Functional     Method          .... DFT(GTOs)
 Exchange Functional    Exchange        .... B88
   X-Alpha parameter    XAlpha          ....  0.666667
   Becke's b parameter  XBeta           ....  0.004200
 Correlation Functional Correlation     .... LYP
 LDA part of GGA corr.  LDAOpt          .... VWN-5
 Gradients option       PostSCFGGA      .... off
 Hybrid DFT is turned on
   Fraction HF Exchange ScalHFX         ....  0.710000
   Scaling of DF-GGA-X  ScalDFX         ....  0.290000
   Scaling of DF-GGA-C  ScalDFC         ....  0.540000
   Scaling of DF-LDA-C  ScalLDAC        ....  0.540000
   Perturbative correction              ....  1.000000
   Density functional embedding theory  .... OFF
 RI-approximation to the Coulomb term is turned on
   Number of auxiliary basis functions  .... 1024
   RI-JK (J+K treated both via RI)      .... on


General Settings:
 Integral files         IntName         .... MOR07_ed01
 Hartree-Fock type      HFTyp           .... RHF
 Total Charge           Charge          ....    0
 Multiplicity           Mult            ....    1
 Number of Electrons    NEL             ....   94
 Basis Dimension        Dim             ....  452
 Nuclear Repulsion      ENuc            ....    753.7684398673 Eh

Convergence Acceleration:
 DIIS                   CNVDIIS         .... on
   Start iteration      DIISMaxIt       ....    12
   Startup error        DIISStart       ....  0.200000
   # of expansion vecs  DIISMaxEq       ....     5
   Bias factor          DIISBfac        ....   1.050
   Max. coefficient     DIISMaxC        ....  10.000
 Newton-Raphson         CNVNR           .... off
 SOSCF                  CNVSOSCF        .... off
 Level Shifting         CNVShift        .... on
   Level shift para.    LevelShift      ....    0.2500
   Turn off err/grad.   ShiftErr        ....    0.0010
 Zerner damping         CNVZerner       .... off
 Static damping         CNVDamp         .... on
   Fraction old density DampFac         ....    0.7000
   Max. Damping (<1)    DampMax         ....    0.9800
   Min. Damping (>=0)   DampMin         ....    0.0000
   Turn off err/grad.   DampErr         ....    0.1000
 Fernandez-Rico         CNVRico         .... off

SCF Procedure:
 Maximum # iterations   MaxIter         ....   125
 SCF integral mode      SCFMode         .... Direct
   Integral package                     .... LIBINT
 Reset frequency        DirectResetFreq ....    20
 Integral Threshold     Thresh          ....  1.000e-10 Eh
 Primitive CutOff       TCut            ....  1.000e-11 Eh

Convergence Tolerance:
 Convergence Check Mode ConvCheckMode   .... Total+1el-Energy
 Convergence forced     ConvForced      .... 0
 Energy Change          TolE            ....  1.000e-06 Eh
 1-El. energy change                    ....  1.000e-03 Eh
 DIIS Error             TolErr          ....  1.000e-06


Diagonalization of the overlap matrix:
Smallest eigenvalue                        ... 1.041e-05
Time for diagonalization                   ...    0.027 sec
Threshold for overlap eigenvalues          ... 1.000e-08
Number of eigenvalues below threshold      ... 0
Time for construction of square roots      ...    0.025 sec
Total time needed                          ...    0.053 sec

-------------------
DFT GRID GENERATION
-------------------

General Integration Accuracy     IntAcc      ...  4.670
Radial Grid Type                 RadialGrid  ... Gauss-Chebyshev
Angular Grid (max. acc.)         AngularGrid ... Lebedev-302
Angular grid pruning method      GridPruning ... 3 (G Style)
Weight generation scheme         WeightScheme... Becke
Basis function cutoff            BFCut       ...    1.0000e-10
Integration weight cutoff        WCut        ...    1.0000e-14
Grids for H and He will be reduced by one unit

# of grid points (after initial pruning)     ...  71784 (   0.0 sec)
# of grid points (after weights+screening)   ...  67810 (   0.0 sec)
nearest neighbour list constructed           ...    0.0 sec
Grid point re-assignment to atoms done       ...    0.0 sec
Grid point division into batches done        ...    0.3 sec
Reduced shell lists constructed in    0.4 sec

Total number of grid points                  ...    67810
Total number of batches                      ...     1063
Average number of points per batch           ...       63
Average number of grid points per atom       ...     6165
Average number of shells per batch           ...   110.87 (71.99%)
Average number of basis functions per batch  ...   340.48 (75.33%)
Average number of large shells per batch     ...    94.52 (85.25%)
Average number of large basis fcns per batch ...   288.09 (84.61%)
Average number of aux-shells per batch       ...   110.87 (36.00%)
Average number of aux functions per batch    ...   340.48 (33.25%)
Maximum spatial batch extension              ...   4.97,  3.91, 18.21 au
Average spatial batch extension              ...   0.07,  0.07,  0.08 au

Time for grid setup =    0.504 sec

------------------------------
INITIAL GUESS: MODEL POTENTIAL
------------------------------
Loading Hartree-Fock densities                     ... done
Calculating cut-offs                               ... done
Setting up the integral package                    ... done
Initializing the effective Hamiltonian             ... done
Starting the Coulomb interaction                   ... done (   0.0 sec)
Reading the grid                                   ... done
Mapping shells                                     ... done
Starting the XC term evaluation                    ... done (   0.1 sec)
  promolecular density results
     # of electrons  =     93.999955849
     EX              =   -114.033858468
     EC              =     -0.463680040
     EX+EC           =   -114.497538508
Transforming the Hamiltonian                       ... done (   0.0 sec)
Diagonalizing the Hamiltonian                      ... done (   0.0 sec)
Back transforming the eigenvectors                 ... done (   0.0 sec)
Now organizing SCF variables                       ... done
                      ------------------
                      INITIAL GUESS DONE (   0.7 sec)
                      ------------------
--------------
SCF ITERATIONS
--------------
ITER       Energy         Delta-E        Max-DP      RMS-DP      [F,P]     Damp
  0  -1608.9663142868   0.000000000000 0.31681717  0.00102338  0.1985118 0.7000
  1  -1608.7570775265   0.209236760291 0.27256895  0.00088680  0.1640402 0.7000
                               ***Turning on DIIS***
  2  -1608.8348974640  -0.077819937496 0.65195136  0.00209438  0.0949375 0.0000
  3  -1609.1614056025  -0.326508138519 0.00846340  0.00012125  0.1118377 0.7000
  4  -1609.2800333260  -0.118627723506 0.00842525  0.00012969  0.1016436 0.7000
  5  -1609.2993010064  -0.019267680370 0.02040218  0.00037966  0.0731815 0.0000
  6  -1609.2098378338   0.089463172616 0.02468484  0.00013215  0.0195556 0.0000
  7  -1609.2118004825  -0.001962648693 0.00859587  0.00006420  0.0165277 0.0000
  8  -1609.2121079500  -0.000307467565 0.00494439  0.00003019  0.0086375 0.0000
  9  -1609.2122625661  -0.000154616114 0.00357379  0.00002115  0.0042542 0.0000
 10  -1609.2123103149  -0.000047748811 0.00190990  0.00001428  0.0020836 0.0000
 11  -1609.2123294581  -0.000019143164 0.00129608  0.00001066  0.0007151 0.0000
 12  -1609.2123366416  -0.000007183493 0.00100316  0.00000471  0.0007421 0.0000
 13  -1609.2123385684  -0.000001926783 0.00064559  0.00000463  0.0002966 0.0000
 14  -1609.2123394334  -0.000000865013 0.00070585  0.00000517  0.0002010 0.0000
 15  -1609.2123399477  -0.000000514314 0.00040011  0.00000268  0.0002775 0.0000
 16  -1609.2123400767  -0.000000128987 0.00017872  0.00000182  0.0000905 0.0000
                 **** Energy Check signals convergence ****

               *****************************************************
               *                     SUCCESS                       *
               *           SCF CONVERGED AFTER  17 CYCLES          *
               *****************************************************


----------------
TOTAL SCF ENERGY
----------------

Total Energy       :        -1609.21234009 Eh          -43788.89396 eV

Components:
Nuclear Repulsion  :          753.76843987 Eh           20511.08201 eV
Electronic Energy  :        -2362.98077996 Eh          -64299.97597 eV
One Electron Energy:        -3708.84424974 Eh         -100922.78285 eV
Two Electron Energy:         1345.86346978 Eh           36622.80688 eV

Virial components:
Potential Energy   :        -3215.95796235 Eh          -87510.66511 eV
Kinetic Energy     :         1606.74562226 Eh           43721.77115 eV
Virial Ratio       :            2.00153523


DFT components:
N(Alpha)           :       46.999973444065 electrons
N(Beta)            :       46.999973444065 electrons
N(Total)           :       93.999946888131 electrons
E(X)               :      -33.276076864684 Eh       
E(C)               :       -1.937090575782 Eh       
E(XC)              :      -35.213167440466 Eh       
DFET-embed. en.    :        0.000000000000 Eh       

---------------
SCF CONVERGENCE
---------------

  Last Energy change         ...   -1.7863e-08  Tolerance :   1.0000e-06
  Last MAX-Density change    ...    2.2468e-04  Tolerance :   1.0000e-05
  Last RMS-Density change    ...    2.1377e-06  Tolerance :   1.0000e-06
  Last DIIS Error            ...    9.9929e-06  Tolerance :   1.0000e-06

             **** THE GBW FILE WAS UPDATED (MOR07_ed01.gbw) ****
             **** DENSITY FILE WAS UPDATED (MOR07_ed01.scfp) ****
             **** ENERGY FILE WAS UPDATED (MOR07_ed01.en.tmp) ****
             **** THE GBW FILE WAS UPDATED (MOR07_ed01.gbw) ****
             **** DENSITY FILE WAS UPDATED (MOR07_ed01.scfp) ****
----------------
ORBITAL ENERGIES
----------------

  NO   OCC          E(Eh)            E(eV) 
   0   2.0000    -218.869017     -5955.7287 
   1   2.0000     -25.847673      -703.3509 
   2   2.0000     -21.905602      -596.0817 
   3   2.0000     -21.905602      -596.0817 
   4   2.0000     -21.902921      -596.0088 
   5   2.0000     -20.151361      -548.3464 
   6   2.0000     -20.151349      -548.3461 
   7   2.0000     -20.151347      -548.3460 
   8   2.0000     -20.151344      -548.3460 
   9   2.0000     -20.126127      -547.6597 
  10   2.0000     -11.003846      -299.4299 
  11   2.0000     -11.003839      -299.4297 
  12   2.0000     -11.003837      -299.4296 
  13   2.0000     -11.003833      -299.4295 
  14   2.0000     -10.985733      -298.9370 
  15   2.0000      -3.274836       -89.1128 
  16   2.0000      -2.103073       -57.2275 
  17   2.0000      -2.103071       -57.2275 
  18   2.0000      -2.099714       -57.1361 
  19   2.0000      -1.384195       -37.6659 
  20   2.0000      -1.383528       -37.6477 
  21   2.0000      -1.383522       -37.6475 
  22   2.0000      -1.383079       -37.6355 
  23   2.0000      -1.358825       -36.9755 
  24   2.0000      -0.767369       -20.8812 
  25   2.0000      -0.731652       -19.9093 
  26   2.0000      -0.731647       -19.9091 
  27   2.0000      -0.727268       -19.7900 
  28   2.0000      -0.713662       -19.4197 
  29   2.0000      -0.641459       -17.4550 
  30   2.0000      -0.603423       -16.4200 
  31   2.0000      -0.599860       -16.3230 
  32   2.0000      -0.599854       -16.3229 
  33   2.0000      -0.593772       -16.1574 
  34   2.0000      -0.590902       -16.0793 
  35   2.0000      -0.590899       -16.0792 
  36   2.0000      -0.580757       -15.8032 
  37   2.0000      -0.574985       -15.6461 
  38   2.0000      -0.565960       -15.4006 
  39   2.0000      -0.565959       -15.4005 
  40   2.0000      -0.562611       -15.3094 
  41   2.0000      -0.539947       -14.6927 
  42   2.0000      -0.536479       -14.5983 
  43   2.0000      -0.536470       -14.5981 
  44   2.0000      -0.322652        -8.7798 
  45   2.0000      -0.322649        -8.7797 
  46   2.0000      -0.312629        -8.5071 
  47   0.0000      -0.045134        -1.2282 
  48   0.0000       0.028316         0.7705 
  49   0.0000       0.033614         0.9147 
  50   0.0000       0.033615         0.9147 
  51   0.0000       0.039739         1.0814 
  52   0.0000       0.043758         1.1907 
  53   0.0000       0.043763         1.1909 
  54   0.0000       0.061558         1.6751 
  55   0.0000       0.070721         1.9244 
  56   0.0000       0.073457         1.9989 
  57   0.0000       0.077200         2.1007 
  58   0.0000       0.077204         2.1008 
  59   0.0000       0.079267         2.1570 
  60   0.0000       0.091183         2.4812 
  61   0.0000       0.091193         2.4815 
  62   0.0000       0.095409         2.5962 
  63   0.0000       0.101418         2.7597 
  64   0.0000       0.101437         2.7602 
  65   0.0000       0.108365         2.9488 
  66   0.0000       0.108389         2.9494 
  67   0.0000       0.109471         2.9789 
  68   0.0000       0.123109         3.3500 
  69   0.0000       0.123824         3.3694 
  70   0.0000       0.126283         3.4363 
  71   0.0000       0.128931         3.5084 
  72   0.0000       0.128933         3.5084 
  73   0.0000       0.135939         3.6991 
  74   0.0000       0.150573         4.0973 
  75   0.0000       0.150611         4.0983 
  76   0.0000       0.158332         4.3084 
  77   0.0000       0.165457         4.5023 
  78   0.0000       0.169782         4.6200 
  79   0.0000       0.180295         4.9061 
  80   0.0000       0.182641         4.9699 
  81   0.0000       0.182658         4.9704 
  82   0.0000       0.197889         5.3848 
  83   0.0000       0.202110         5.4997 
  84   0.0000       0.203871         5.5476 
  85   0.0000       0.214142         5.8271 
  86   0.0000       0.214170         5.8279 
  87   0.0000       0.234269         6.3748 
  88   0.0000       0.250031         6.8037 
  89   0.0000       0.262879         7.1533 
  90   0.0000       0.279810         7.6140 
  91   0.0000       0.279836         7.6147 
  92   0.0000       0.292846         7.9687 
  93   0.0000       0.292868         7.9694 
  94   0.0000       0.294682         8.0187 
  95   0.0000       0.298289         8.1168 
  96   0.0000       0.304656         8.2901 
  97   0.0000       0.320149         8.7117 
  98   0.0000       0.323421         8.8007 
  99   0.0000       0.331563         9.0223 
 100   0.0000       0.331633         9.0242 
 101   0.0000       0.340983         9.2786 
 102   0.0000       0.341043         9.2802 
 103   0.0000       0.341474         9.2920 
 104   0.0000       0.345128         9.3914 
 105   0.0000       0.366187         9.9644 
 106   0.0000       0.366204         9.9649 
 107   0.0000       0.383753        10.4424 
 108   0.0000       0.391227        10.6458 
 109   0.0000       0.406237        11.0543 
 110   0.0000       0.407301        11.0832 
 111   0.0000       0.407309        11.0835 
 112   0.0000       0.411309        11.1923 
 113   0.0000       0.418274        11.3818 
 114   0.0000       0.423630        11.5276 
 115   0.0000       0.423640        11.5278 
 116   0.0000       0.429075        11.6757 
 117   0.0000       0.429079        11.6758 
 118   0.0000       0.432385        11.7658 
 119   0.0000       0.447108        12.1664 
 120   0.0000       0.470739        12.8094 
 121   0.0000       0.478852        13.0302 
 122   0.0000       0.528708        14.3869 
 123   0.0000       0.528724        14.3873 
 124   0.0000       0.538014        14.6401 
 125   0.0000       0.549216        14.9449 
 126   0.0000       0.564743        15.3675 
 127   0.0000       0.575498        15.6601 
 128   0.0000       0.577326        15.7099 
 129   0.0000       0.577368        15.7110 
 130   0.0000       0.594820        16.1859 
 131   0.0000       0.602612        16.3979 
 132   0.0000       0.602649        16.3989 
 133   0.0000       0.615768        16.7559 
 134   0.0000       0.615792        16.7566 
 135   0.0000       0.618938        16.8422 
 136   0.0000       0.620640        16.8885 
 137   0.0000       0.622158        16.9298 
 138   0.0000       0.624295        16.9879 
 139   0.0000       0.624343        16.9892 
 140   0.0000       0.628240        17.0953 
 141   0.0000       0.631029        17.1712 
 142   0.0000       0.631051        17.1718 
 143   0.0000       0.654896        17.8206 
 144   0.0000       0.654990        17.8232 
 145   0.0000       0.660719        17.9791 
 146   0.0000       0.665272        18.1030 
 147   0.0000       0.679865        18.5001 
 148   0.0000       0.691337        18.8122 
 149   0.0000       0.691395        18.8138 
 150   0.0000       0.695617        18.9287 
 151   0.0000       0.704173        19.1615 
 152   0.0000       0.720741        19.6123 
 153   0.0000       0.743536        20.2326 
 154   0.0000       0.750724        20.4282 
 155   0.0000       0.752796        20.4846 
 156   0.0000       0.752829        20.4855 
 157   0.0000       0.755469        20.5574 
 158   0.0000       0.757899        20.6235 
 159   0.0000       0.776090        21.1185 
 160   0.0000       0.776119        21.1193 
 161   0.0000       0.779976        21.2242 
 162   0.0000       0.803819        21.8730 
 163   0.0000       0.803836        21.8735 
 164   0.0000       0.818587        22.2749 
 165   0.0000       0.823374        22.4051 
 166   0.0000       0.830956        22.6115 
 167   0.0000       0.831895        22.6370 
 168   0.0000       0.833781        22.6883 
 169   0.0000       0.833835        22.6898 
 170   0.0000       0.847477        23.0610 
 171   0.0000       0.867487        23.6055 
 172   0.0000       0.893977        24.3263 
 173   0.0000       0.893994        24.3268 
 174   0.0000       0.896931        24.4067 
 175   0.0000       0.920666        25.0526 
 176   0.0000       0.929045        25.2806 
 177   0.0000       0.939549        25.5664 
 178   0.0000       0.939598        25.5678 
 179   0.0000       0.955922        26.0120 
 180   0.0000       0.985800        26.8250 
 181   0.0000       0.985815        26.8254 
 182   0.0000       0.988829        26.9074 
 183   0.0000       0.993556        27.0360 
 184   0.0000       0.999961        27.2103 
 185   0.0000       1.008462        27.4417 
 186   0.0000       1.008476        27.4420 
 187   0.0000       1.011382        27.5211 
 188   0.0000       1.025398        27.9025 
 189   0.0000       1.033604        28.1258 
 190   0.0000       1.033634        28.1266 
 191   0.0000       1.037108        28.2212 
 192   0.0000       1.076272        29.2868 
 193   0.0000       1.082834        29.4654 
 194   0.0000       1.086986        29.5784 
 195   0.0000       1.087008        29.5790 
 196   0.0000       1.093462        29.7546 
 197   0.0000       1.093479        29.7551 
 198   0.0000       1.114062        30.3152 
 199   0.0000       1.134970        30.8841 
 200   0.0000       1.134989        30.8846 
 201   0.0000       1.156458        31.4688 
 202   0.0000       1.158172        31.5155 
 203   0.0000       1.234074        33.5809 
 204   0.0000       1.236517        33.6473 
 205   0.0000       1.236533        33.6478 
 206   0.0000       1.292960        35.1832 
 207   0.0000       1.321967        35.9726 
 208   0.0000       1.352614        36.8065 
 209   0.0000       1.379826        37.5470 
 210   0.0000       1.384607        37.6771 
 211   0.0000       1.384613        37.6772 
 212   0.0000       1.399456        38.0811 
 213   0.0000       1.399489        38.0820 
 214   0.0000       1.414134        38.4806 
 215   0.0000       1.463674        39.8286 
 216   0.0000       1.469331        39.9825 
 217   0.0000       1.523718        41.4625 
 218   0.0000       1.529870        41.6299 
 219   0.0000       1.529888        41.6304 
 220   0.0000       1.698820        46.2272 
 221   0.0000       1.727771        47.0150 
 222   0.0000       1.743247        47.4362 
 223   0.0000       1.743263        47.4366 
 224   0.0000       1.791834        48.7583 
 225   0.0000       1.825362        49.6706 
 226   0.0000       1.849858        50.3372 
 227   0.0000       1.849866        50.3374 
 228   0.0000       1.873530        50.9813 
 229   0.0000       1.881487        51.1979 
 230   0.0000       1.881521        51.1988 
 231   0.0000       1.901876        51.7527 
 232   0.0000       1.901892        51.7531 
 233   0.0000       1.913013        52.0557 
 234   0.0000       1.922094        52.3028 
 235   0.0000       1.926875        52.4329 
 236   0.0000       1.943033        52.8726 
 237   0.0000       1.943081        52.8739 
 238   0.0000       1.952089        53.1190 
 239   0.0000       1.954899        53.1955 
 240   0.0000       1.968610        53.5686 
 241   0.0000       1.968652        53.5698 
 242   0.0000       2.000203        54.4283 
 243   0.0000       2.003547        54.5193 
 244   0.0000       2.016990        54.8851 
 245   0.0000       2.030543        55.2539 
 246   0.0000       2.037889        55.4538 
 247   0.0000       2.037926        55.4548 
 248   0.0000       2.059180        56.0331 
 249   0.0000       2.064991        56.1913 
 250   0.0000       2.075203        56.4691 
 251   0.0000       2.140488        58.2456 
 252   0.0000       2.140506        58.2461 
 253   0.0000       2.152507        58.5727 
 254   0.0000       2.170813        59.0708 
 255   0.0000       2.211394        60.1751 
 256   0.0000       2.211523        60.1786 
 257   0.0000       2.278079        61.9897 
 258   0.0000       2.301260        62.6205 
 259   0.0000       2.309375        62.8413 
 260   0.0000       2.309392        62.8418 
 261   0.0000       2.355252        64.0897 
 262   0.0000       2.364746        64.3480 
 263   0.0000       2.461385        66.9777 
 264   0.0000       2.462072        66.9964 
 265   0.0000       2.462152        66.9986 
 266   0.0000       2.515514        68.4506 
 267   0.0000       2.515547        68.4515 
 268   0.0000       2.520797        68.5944 
 269   0.0000       2.530725        68.8645 
 270   0.0000       2.530744        68.8650 
 271   0.0000       2.545777        69.2741 
 272   0.0000       2.546008        69.2804 
 273   0.0000       2.553493        69.4841 
 274   0.0000       2.580899        70.2298 
 275   0.0000       2.580951        70.2313 
 276   0.0000       2.587544        70.4106 
 277   0.0000       2.587608        70.4124 
 278   0.0000       2.653496        72.2053 
 279   0.0000       2.654219        72.2250 
 280   0.0000       2.835283        77.1520 
 281   0.0000       2.838184        77.2309 
 282   0.0000       2.838215        77.2318 
 283   0.0000       2.852023        77.6075 
 284   0.0000       2.852071        77.6088 
 285   0.0000       2.852752        77.6273 
 286   0.0000       2.858302        77.7783 
 287   0.0000       2.867889        78.0392 
 288   0.0000       2.941136        80.0324 
 289   0.0000       2.941164        80.0331 
 290   0.0000       2.989415        81.3461 
 291   0.0000       2.989419        81.3462 
 292   0.0000       3.009228        81.8853 
 293   0.0000       3.015923        82.0674 
 294   0.0000       3.046332        82.8949 
 295   0.0000       3.062088        83.3236 
 296   0.0000       3.091817        84.1326 
 297   0.0000       3.091843        84.1333 
 298   0.0000       3.103134        84.4406 
 299   0.0000       3.120733        84.9195 
 300   0.0000       3.129570        85.1599 
 301   0.0000       3.129612        85.1611 
 302   0.0000       3.157418        85.9177 
 303   0.0000       3.208877        87.3180 
 304   0.0000       3.210679        87.3670 
 305   0.0000       3.232192        87.9524 
 306   0.0000       3.232200        87.9526 
 307   0.0000       3.240947        88.1907 
 308   0.0000       3.256279        88.6079 
 309   0.0000       3.256291        88.6082 
 310   0.0000       3.292862        89.6033 
 311   0.0000       3.292883        89.6039 
 312   0.0000       3.295663        89.6795 
 313   0.0000       3.301635        89.8420 
 314   0.0000       3.304260        89.9135 
 315   0.0000       3.325672        90.4961 
 316   0.0000       3.351703        91.2045 
 317   0.0000       3.365671        91.5846 
 318   0.0000       3.381768        92.0226 
 319   0.0000       3.423444        93.1567 
 320   0.0000       3.423458        93.1570 
 321   0.0000       3.436400        93.5092 
 322   0.0000       3.462314        94.2143 
 323   0.0000       3.462377        94.2161 
 324   0.0000       3.468028        94.3699 
 325   0.0000       3.486576        94.8746 
 326   0.0000       3.491088        94.9973 
 327   0.0000       3.491108        94.9979 
 328   0.0000       3.554015        96.7097 
 329   0.0000       3.568856        97.1135 
 330   0.0000       3.589672        97.6799 
 331   0.0000       3.620588        98.5212 
 332   0.0000       3.620679        98.5237 
 333   0.0000       3.629415        98.7614 
 334   0.0000       3.652321        99.3847 
 335   0.0000       3.652429        99.3876 
 336   0.0000       3.687945       100.3541 
 337   0.0000       3.689975       100.4093 
 338   0.0000       3.690019       100.4105 
 339   0.0000       3.723811       101.3301 
 340   0.0000       3.727959       101.4429 
 341   0.0000       3.781942       102.9119 
 342   0.0000       3.787762       103.0703 
 343   0.0000       3.801044       103.4317 
 344   0.0000       3.809187       103.6532 
 345   0.0000       3.809209       103.6538 
 346   0.0000       3.865929       105.1973 
 347   0.0000       3.865953       105.1979 
 348   0.0000       3.887345       105.7800 
 349   0.0000       4.079033       110.9961 
 350   0.0000       4.086351       111.1953 
 351   0.0000       4.086367       111.1957 
 352   0.0000       4.101536       111.6085 
 353   0.0000       4.134674       112.5102 
 354   0.0000       4.162842       113.2767 
 355   0.0000       4.162896       113.2782 
 356   0.0000       4.602434       125.2386 
 357   0.0000       4.638745       126.2267 
 358   0.0000       4.638773       126.2274 
 359   0.0000       4.702151       127.9520 
 360   0.0000       4.722421       128.5036 
 361   0.0000       4.787543       130.2757 
 362   0.0000       4.973119       135.3255 
 363   0.0000       4.997411       135.9865 
 364   0.0000       4.997461       135.9878 
 365   0.0000       5.091997       138.5603 
 366   0.0000       5.358314       145.8071 
 367   0.0000       5.358321       145.8073 
 368   0.0000       5.358410       145.8097 
 369   0.0000       5.358885       145.8227 
 370   0.0000       5.358966       145.8249 
 371   0.0000       5.360224       145.8591 
 372   0.0000       5.360296       145.8611 
 373   0.0000       5.360302       145.8612 
 374   0.0000       5.382369       146.4617 
 375   0.0000       5.382373       146.4618 
 376   0.0000       5.746776       156.3777 
 377   0.0000       5.746781       156.3779 
 378   0.0000       5.751170       156.4973 
 379   0.0000       5.754564       156.5896 
 380   0.0000       5.766146       156.9048 
 381   0.0000       5.766153       156.9050 
 382   0.0000       5.768014       156.9556 
 383   0.0000       5.769640       156.9999 
 384   0.0000       5.782148       157.3402 
 385   0.0000       5.817906       158.3133 
 386   0.0000       5.964900       162.3132 
 387   0.0000       5.964919       162.3137 
 388   0.0000       5.976286       162.6230 
 389   0.0000       5.998206       163.2195 
 390   0.0000       6.007445       163.4709 
 391   0.0000       6.007456       163.4712 
 392   0.0000       6.203914       168.8171 
 393   0.0000       6.372818       173.4132 
 394   0.0000       6.485989       176.4927 
 395   0.0000       6.494753       176.7312 
 396   0.0000       6.494764       176.7315 
 397   0.0000       6.524891       177.5513 
 398   0.0000       6.649832       180.9511 
 399   0.0000       6.668791       181.4670 
 400   0.0000       6.674874       181.6326 
 401   0.0000       6.674905       181.6334 
 402   0.0000       6.692670       182.1168 
 403   0.0000       6.714821       182.7196 
 404   0.0000       6.714828       182.7198 
 405   0.0000       6.739617       183.3943 
 406   0.0000       6.739636       183.3948 
 407   0.0000       6.741316       183.4405 
 408   0.0000       6.743346       183.4958 
 409   0.0000       6.750645       183.6944 
 410   0.0000       6.750659       183.6948 
 411   0.0000       6.752935       183.7567 
 412   0.0000       6.756153       183.8443 
 413   0.0000       6.766628       184.1293 
 414   0.0000       6.772952       184.3014 
 415   0.0000       6.786412       184.6676 
 416   0.0000       6.915116       188.1699 
 417   0.0000       6.915133       188.1703 
 418   0.0000       6.915228       188.1729 
 419   0.0000       7.021874       191.0749 
 420   0.0000       7.105538       193.3515 
 421   0.0000       7.105557       193.3520 
 422   0.0000       7.116041       193.6373 
 423   0.0000       7.134026       194.1267 
 424   0.0000       7.142649       194.3614 
 425   0.0000       7.142657       194.3616 
 426   0.0000       7.171296       195.1409 
 427   0.0000       7.195084       195.7882 
 428   0.0000       7.199359       195.9045 
 429   0.0000       7.203130       196.0071 
 430   0.0000       7.203134       196.0072 
 431   0.0000       7.257331       197.4820 
 432   0.0000       7.263282       197.6440 
 433   0.0000       7.263311       197.6448 
 434   0.0000       7.292368       198.4354 
 435   0.0000       7.424776       202.0384 
 436   0.0000       7.424784       202.0386 
 437   0.0000       7.504519       204.2083 
 438   0.0000       7.537600       205.1085 
 439   0.0000       7.590177       206.5392 
 440   0.0000       7.690477       209.2685 
 441   0.0000       7.690503       209.2692 
 442   0.0000      23.807914       647.8463 
 443   0.0000      23.808065       647.8504 
 444   0.0000      24.042591       654.2322 
 445   0.0000      24.069828       654.9733 
 446   0.0000      24.263087       660.2322 
 447   0.0000      44.984346      1224.0863 
 448   0.0000      45.170227      1229.1444 
 449   0.0000      45.170245      1229.1449 
 450   0.0000      45.199141      1229.9312 
 451   0.0000      45.239763      1231.0365 

                    ********************************
                    * MULLIKEN POPULATION ANALYSIS *
                    ********************************

-----------------------
MULLIKEN ATOMIC CHARGES
-----------------------
   0 Cr:   -0.234164
   1 O :   -0.311895
   2 C :    0.366852
   3 C :    0.362988
   4 O :   -0.348791
   5 C :    0.366719
   6 O :   -0.311891
   7 C :    0.366925
   8 O :   -0.311866
   9 C :    0.366979
  10 O :   -0.311857
Sum of atomic charges:   -0.0000000

--------------------------------
MULLIKEN REDUCED ORBITAL CHARGES
--------------------------------
  0 Crs       :     6.622928  s :     6.622928
      pz      :     4.119154  p :    12.379356
      px      :     4.130094
      py      :     4.130109
      dz2     :     0.325822  d :     5.211878
      dxz     :     1.546591
      dyz     :     1.546607
      dx2y2   :     1.361738
      dxy     :     0.431120
      f0      :     0.003757  f :     0.019745
      f+1     :     0.003173
      f-1     :     0.003173
      f+2     :     0.000006
      f-2     :     0.000741
      f+3     :     0.004446
      f-3     :     0.004447
      g0      :     0.000058  g :     0.000256
      g+1     :     0.000010
      g-1     :     0.000010
      g+2     :     0.000006
      g-2     :     0.000059
      g+3     :     0.000008
      g-3     :     0.000008
      g+4     :     0.000081
      g-4     :     0.000017
  1 O s       :     3.895041  s :     3.895041
      pz      :     1.494442  p :     4.361545
      px      :     1.424783
      py      :     1.442320
      dz2     :     0.003876  d :     0.053344
      dxz     :     0.010689
      dyz     :     0.008594
      dx2y2   :     0.018764
      dxy     :     0.011421
      f0      :     0.000259  f :     0.001966
      f+1     :     0.000134
      f-1     :     0.000116
      f+2     :     0.000013
      f-2     :     0.000443
      f+3     :     0.000554
      f-3     :     0.000447
  2 C s       :     3.449494  s :     3.449494
      pz      :     0.554154  p :     2.025960
      px      :     0.754246
      py      :     0.717559
      dz2     :     0.003977  d :     0.140227
      dxz     :     0.033435
      dyz     :     0.027628
      dx2y2   :     0.066368
      dxy     :     0.008819
      f0      :     0.002254  f :     0.017467
      f+1     :     0.001249
      f-1     :     0.001080
      f+2     :     0.000279
      f-2     :     0.003838
      f+3     :     0.004824
      f-3     :     0.003943
  3 C s       :     3.354540  s :     3.354540
      pz      :     0.936370  p :     2.090196
      px      :     0.576913
      py      :     0.576912
      dz2     :     0.016972  d :     0.173838
      dxz     :     0.072124
      dyz     :     0.072126
      dx2y2   :     0.005111
      dxy     :     0.007504
      f0      :     0.005249  f :     0.018438
      f+1     :     0.006382
      f-1     :     0.006382
      f+2     :     0.000236
      f-2     :     0.000168
      f+3     :     0.000011
      f-3     :     0.000011
  4 O s       :     3.901741  s :     3.901741
      pz      :     1.344804  p :     4.395231
      px      :     1.525213
      py      :     1.525213
      dz2     :     0.013070  d :     0.049898
      dxz     :     0.018651
      dyz     :     0.018651
      dx2y2   :    -0.000148
      dxy     :    -0.000326
      f0      :     0.000530  f :     0.001921
      f+1     :     0.000695
      f-1     :     0.000695
      f+2     :     0.000001
      f-2     :     0.000000
      f+3     :    -0.000000
      f-3     :    -0.000000
  5 C s       :     3.449558  s :     3.449558
      pz      :     0.554181  p :     2.025999
      px      :     0.754414
      py      :     0.717404
      dz2     :     0.003982  d :     0.140255
      dxz     :     0.033458
      dyz     :     0.027618
      dx2y2   :     0.066366
      dxy     :     0.008830
      f0      :     0.002254  f :     0.017468
      f+1     :     0.001250
      f-1     :     0.001080
      f+2     :     0.000280
      f-2     :     0.003838
      f+3     :     0.004827
      f-3     :     0.003940
  6 O s       :     3.895013  s :     3.895013
      pz      :     1.494459  p :     4.361567
      px      :     1.424717
      py      :     1.442392
      dz2     :     0.003877  d :     0.053345
      dxz     :     0.010696
      dyz     :     0.008587
      dx2y2   :     0.018762
      dxy     :     0.011423
      f0      :     0.000259  f :     0.001966
      f+1     :     0.000134
      f-1     :     0.000116
      f+2     :     0.000013
      f-2     :     0.000443
      f+3     :     0.000554
      f-3     :     0.000446
  7 C s       :     3.449339  s :     3.449339
      pz      :     0.554220  p :     2.026020
      px      :     0.717584
      py      :     0.754216
      dz2     :     0.003981  d :     0.140249
      dxz     :     0.027636
      dyz     :     0.033438
      dx2y2   :     0.066367
      dxy     :     0.008826
      f0      :     0.002253  f :     0.017467
      f+1     :     0.001081
      f-1     :     0.001250
      f+2     :     0.000280
      f-2     :     0.003838
      f+3     :     0.003943
      f-3     :     0.004823
  8 O s       :     3.894994  s :     3.894994
      pz      :     1.494463  p :     4.361560
      px      :     1.442311
      py      :     1.424786
      dz2     :     0.003878  d :     0.053346
      dxz     :     0.008594
      dyz     :     0.010687
      dx2y2   :     0.018763
      dxy     :     0.011423
      f0      :     0.000259  f :     0.001966
      f+1     :     0.000116
      f-1     :     0.000134
      f+2     :     0.000013
      f-2     :     0.000443
      f+3     :     0.000447
      f-3     :     0.000554
  9 C s       :     3.449323  s :     3.449323
      pz      :     0.554187  p :     2.025994
      px      :     0.717428
      py      :     0.754379
      dz2     :     0.003981  d :     0.140237
      dxz     :     0.027618
      dyz     :     0.033452
      dx2y2   :     0.066354
      dxy     :     0.008832
      f0      :     0.002253  f :     0.017467
      f+1     :     0.001080
      f-1     :     0.001250
      f+2     :     0.000280
      f-2     :     0.003838
      f+3     :     0.003940
      f-3     :     0.004826
 10 O s       :     3.894991  s :     3.894991
      pz      :     1.494461  p :     4.361554
      px      :     1.442374
      py      :     1.424720
      dz2     :     0.003877  d :     0.053346
      dxz     :     0.008588
      dyz     :     0.010694
      dx2y2   :     0.018762
      dxy     :     0.011425
      f0      :     0.000259  f :     0.001966
      f+1     :     0.000116
      f-1     :     0.000134
      f+2     :     0.000013
      f-2     :     0.000443
      f+3     :     0.000446
      f-3     :     0.000554


                     *******************************
                     * LOEWDIN POPULATION ANALYSIS *
                     *******************************

----------------------
LOEWDIN ATOMIC CHARGES
----------------------
   0 Cr:   -0.303221
   1 O :    0.117266
   2 C :   -0.037905
   3 C :   -0.122445
   4 O :    0.108389
   5 C :   -0.037962
   6 O :    0.117268
   7 C :   -0.037967
   8 O :    0.117263
   9 C :   -0.037948
  10 O :    0.117263

-------------------------------
LOEWDIN REDUCED ORBITAL CHARGES
-------------------------------
  0 Crs       :     5.958395  s :     5.958395
      pz      :     4.137720  p :    12.756063
      px      :     4.309174
      py      :     4.309169
      dz2     :     0.549702  d :     5.494082
      dxz     :     1.429612
      dyz     :     1.429632
      dx2y2   :     1.248792
      dxy     :     0.836345
      f0      :     0.018782  f :     0.093396
      f+1     :     0.014153
      f-1     :     0.014152
      f+2     :     0.000038
      f-2     :     0.002379
      f+3     :     0.021943
      f-3     :     0.021947
      g0      :     0.000431  g :     0.001286
      g+1     :     0.000018
      g-1     :     0.000018
      g+2     :     0.000011
      g-2     :     0.000299
      g+3     :     0.000009
      g-3     :     0.000009
      g+4     :     0.000443
      g-4     :     0.000046
  1 O s       :     3.384752  s :     3.384752
      pz      :     1.345891  p :     4.308807
      px      :     1.494532
      py      :     1.468383
      dz2     :     0.027022  d :     0.183542
      dxz     :     0.020286
      dyz     :     0.016367
      dx2y2   :     0.036580
      dxy     :     0.083287
      f0      :     0.000446  f :     0.005634
      f+1     :     0.000700
      f-1     :     0.000577
      f+2     :     0.000021
      f-2     :     0.000753
      f+3     :     0.001419
      f-3     :     0.001717
  2 C s       :     2.930742  s :     2.930742
      pz      :     0.562962  p :     2.213744
      px      :     0.853690
      py      :     0.797092
      dz2     :     0.083174  d :     0.805053
      dxz     :     0.134922
      dyz     :     0.111419
      dx2y2   :     0.276520
      dxy     :     0.199019
      f0      :     0.010802  f :     0.088365
      f+1     :     0.006996
      f-1     :     0.005983
      f+2     :     0.001027
      f-2     :     0.018171
      f+3     :     0.024310
      f-3     :     0.021075
  3 C s       :     2.888127  s :     2.888127
      pz      :     1.080086  p :     2.220556
      px      :     0.570235
      py      :     0.570235
      dz2     :     0.272835  d :     0.924074
      dxz     :     0.298182
      dyz     :     0.298181
      dx2y2   :     0.018574
      dxy     :     0.036301
      f0      :     0.029945  f :     0.089688
      f+1     :     0.029321
      f-1     :     0.029321
      f+2     :     0.000673
      f-2     :     0.000350
      f+3     :     0.000039
      f-3     :     0.000039
  4 O s       :     3.377692  s :     3.377692
      pz      :     1.589411  p :     4.325415
      px      :     1.368002
      py      :     1.368002
      dz2     :     0.107727  d :     0.182951
      dxz     :     0.037532
      dyz     :     0.037532
      dx2y2   :     0.000052
      dxy     :     0.000109
      f0      :     0.003203  f :     0.005554
      f+1     :     0.001174
      f-1     :     0.001174
      f+2     :     0.000001
      f-2     :     0.000000
      f+3     :     0.000000
      f-3     :     0.000000
  5 C s       :     2.930699  s :     2.930699
      pz      :     0.562974  p :     2.213756
      px      :     0.853884
      py      :     0.796897
      dz2     :     0.083183  d :     0.805142
      dxz     :     0.135012
      dyz     :     0.111362
      dx2y2   :     0.276543
      dxy     :     0.199042
      f0      :     0.010802  f :     0.088365
      f+1     :     0.007000
      f-1     :     0.005980
      f+2     :     0.001030
      f-2     :     0.018168
      f+3     :     0.024323
      f-3     :     0.021063
  6 O s       :     3.384745  s :     3.384745
      pz      :     1.345903  p :     4.308811
      px      :     1.494617
      py      :     1.468291
      dz2     :     0.027021  d :     0.183542
      dxz     :     0.020301
      dyz     :     0.016354
      dx2y2   :     0.036590
      dxy     :     0.083276
      f0      :     0.000446  f :     0.005634
      f+1     :     0.000701
      f-1     :     0.000577
      f+2     :     0.000021
      f-2     :     0.000753
      f+3     :     0.001418
      f-3     :     0.001718
  7 C s       :     2.930708  s :     2.930708
      pz      :     0.563017  p :     2.213757
      px      :     0.797100
      py      :     0.853640
      dz2     :     0.083177  d :     0.805137
      dxz     :     0.111451
      dyz     :     0.134949
      dx2y2   :     0.276531
      dxy     :     0.199030
      f0      :     0.010799  f :     0.088366
      f+1     :     0.005986
      f-1     :     0.007000
      f+2     :     0.001031
      f-2     :     0.018169
      f+3     :     0.021075
      f-3     :     0.024306
  8 O s       :     3.384744  s :     3.384744
      pz      :     1.345932  p :     4.308815
      px      :     1.468382
      py      :     1.494501
      dz2     :     0.027015  d :     0.183544
      dxz     :     0.016379
      dyz     :     0.020297
      dx2y2   :     0.036576
      dxy     :     0.083276
      f0      :     0.000446  f :     0.005634
      f+1     :     0.000577
      f-1     :     0.000700
      f+2     :     0.000021
      f-2     :     0.000754
      f+3     :     0.001716
      f-3     :     0.001419
  9 C s       :     2.930720  s :     2.930720
      pz      :     0.562983  p :     2.213751
      px      :     0.796920
      py      :     0.853848
      dz2     :     0.083182  d :     0.805112
      dxz     :     0.111380
      dyz     :     0.135003
      dx2y2   :     0.276519
      dxy     :     0.199029
      f0      :     0.010801  f :     0.088365
      f+1     :     0.005981
      f-1     :     0.007000
      f+2     :     0.001031
      f-2     :     0.018168
      f+3     :     0.021064
      f-3     :     0.024320
 10 O s       :     3.384747  s :     3.384747
      pz      :     1.345912  p :     4.308813
      px      :     1.468302
      py      :     1.494600
      dz2     :     0.027020  d :     0.183543
      dxz     :     0.016359
      dyz     :     0.020302
      dx2y2   :     0.036587
      dxy     :     0.083275
      f0      :     0.000446  f :     0.005634
      f+1     :     0.000577
      f-1     :     0.000701
      f+2     :     0.000021
      f-2     :     0.000753
      f+3     :     0.001717
      f-3     :     0.001419


                      *****************************
                      * MAYER POPULATION ANALYSIS *
                      *****************************

  NA   - Mulliken gross atomic population
  ZA   - Total nuclear charge
  QA   - Mulliken gross atomic charge
  VA   - Mayer's total valence
  BVA  - Mayer's bonded valence
  FA   - Mayer's free valence

  ATOM       NA         ZA         QA         VA         BVA        FA
  0 Cr    24.2342    24.0000    -0.2342     5.1321     5.1321     0.0000
  1 O      8.3119     8.0000    -0.3119     2.2544     2.2544    -0.0000
  2 C      5.6331     6.0000     0.3669     3.1137     3.1137     0.0000
  3 C      5.6370     6.0000     0.3630     3.3048     3.3048    -0.0000
  4 O      8.3488     8.0000    -0.3488     2.1677     2.1677    -0.0000
  5 C      5.6333     6.0000     0.3667     3.1136     3.1136    -0.0000
  6 O      8.3119     8.0000    -0.3119     2.2543     2.2543    -0.0000
  7 C      5.6331     6.0000     0.3669     3.1131     3.1131    -0.0000
  8 O      8.3119     8.0000    -0.3119     2.2543     2.2543    -0.0000
  9 C      5.6330     6.0000     0.3670     3.1131     3.1131    -0.0000
 10 O      8.3119     8.0000    -0.3119     2.2543     2.2543     0.0000

  Mayer bond orders larger than 0.100000
B(  0-Cr,  2-C ) :   0.9060 B(  0-Cr,  3-C ) :   1.2688 B(  0-Cr,  4-O ) :   0.1011 
B(  0-Cr,  5-C ) :   0.9058 B(  0-Cr,  7-C ) :   0.9054 B(  0-Cr,  9-C ) :   0.9054 
B(  1-O ,  2-C ) :   2.1902 B(  3-C ,  4-O ) :   2.0586 B(  5-C ,  6-O ) :   2.1900 
B(  7-C ,  8-O ) :   2.1900 B(  9-C , 10-O ) :   2.1900 

-------
TIMINGS
-------

Total SCF time: 0 days 0 hours 0 min 22 sec 

Total time                  ....      22.431 sec
Sum of individual times     ....      22.067 sec  ( 98.4%)

Fock matrix formation       ....      20.088 sec  ( 89.6%)
  XC integration            ....       2.288 sec  ( 11.4% of F)
    Basis function eval.    ....       0.354 sec  ( 15.5% of XC)
    Density eval.           ....       0.434 sec  ( 19.0% of XC)
    XC-Functional eval.     ....       0.046 sec  (  2.0% of XC)
    XC-Potential eval.      ....       0.630 sec  ( 27.5% of XC)
Diagonalization             ....       0.687 sec  (  3.1%)
Density matrix formation    ....       0.047 sec  (  0.2%)
Population analysis         ....       0.034 sec  (  0.2%)
Initial guess               ....       0.234 sec  (  1.0%)
Orbital Transformation      ....       0.000 sec  (  0.0%)
Orbital Orthonormalization  ....       0.000 sec  (  0.0%)
DIIS solution               ....       0.473 sec  (  2.1%)
Grid generation             ....       0.504 sec  (  2.2%)


           ************************************************************
           *        Program running with 24 parallel MPI-processes    *
           *              working on a common directory               *
           ************************************************************

------------------------------------------------------------------------------
                                ORCA  MP2 
------------------------------------------------------------------------------

Freezing NCore=30 chemical core electrons

-------------
RI-MP2 ENERGY
-------------
Dimension of the basis                    ...  452
Memory devoted to MP2                     ... 5000 MB   
Data format for buffers                   ... DOUBLE
Compression type for matrix containers    ... UNCOMPRESSED
Scaling for aa/bb pairs                   ...   4.000e-01
Scaling for ab pairs                      ...   4.700e-01
Overall scaling of the MP2 energy         ...   1.000e+00
Calculating two index integrals           ... done (    0.012 sec)
Cholesky decomposition of V**-1           ... done (    0.126 sec)

-----------------
RI-TRANSFORMATION (AUX index driven)
-----------------

Dimension of the orbital-basis         ... 452
Dimension of the aux-basis             ... 1145
Transformation of internal/external MOs...   15-  46 to   47- 451
Number Format for Storage              ... Double (8 Byte)
Integral mode                          ... Direct

First Phase: integral generation and transformation of MO indices
  Aux angular momentum 0               ... done (    0.026 sec)
  Aux angular momentum 1               ... done (    0.047 sec)
  Aux angular momentum 2               ... done (    0.066 sec)
  Aux angular momentum 3               ... done (    0.061 sec)
  Aux angular momentum 4               ... done (    0.039 sec)
  Aux angular momentum 5               ... done (    0.050 sec)
  Aux angular momentum 6               ... done (    0.063 sec)
Closing buffer VIA ( 0.11 GB; CompressionRatio= 1.00)
  Phase 1 completed in     0.437 sec
Second Phase: sorting and transformation of aux index

IA-Transformation
Memory available                       ... 4975 MB 
Max. # MO pairs treated in a batch     ... 2    
# of internal orbitals                 ... 32
# batches for internal orbitals        ... 1
Closing buffer IAV ( 0.01 GB; CompressionRatio= 1.00)
(ia|v) transformation done in     0.080 sec

  Phase 2 completed in     0.185 sec
RI-Integral transformation completed in     0.623 sec
Opening buffers                              ... done

Starting loop over batches of integrals:

Operator 0  - window                       ... ( 15- 46)x( 47-451)
Operator 0  - Memory available             ...  5000 MB
Operator 0  - Memory needed per MO         ...   3.5 MB
Operator 0  - Number of orbitals per batch ... 2
Operator 0  - Number of batches            ... 1

OPERATOR  0   PASS   0:  MOs    15 ...   16 +   17 ...   18 +   19 ...   20 +   21 ...   22
                            +   23 ...   24 +   25 ...   26 +   27 ...   28 +   29 ...   30
                            +   31 ...   32 +   33 ...   34 +   35 ...   36 +   37 ...   38
                            +   39 ...   40 +   41 ...   42 +   43 ...   44 +   45 ...   46
  Reading integrals       ... ok
Time spent in pair loops =     0.043 sec
Deleting buffer (Ka|jb)[aa] ...done

-----------------------------------------------
 RI-MP2 CORRELATION ENERGY:     -1.384796638 Eh
-----------------------------------------------


-------
TIMINGS
-------

Total time                :    1.362 sec
Integral trafo            :    0.630 sec ( 46.2%)
I/O of integrals          :    0.006 sec (  0.4%)
K(i,j) Operators          :    0.021 sec (  1.5%)
T(i,j) pair energies      :    0.005 sec (  0.3%)
V-calculation             :    0.012 sec (  0.9%)
V**(-1/2)                 :    0.126 sec (  9.3%)
Gamma(ia|P)               :    0.000 sec (  0.0%)
Gamma-Trafo               :    0.000 sec (  0.0%)
D(virtual)                :    0.000 sec (  0.0%)
D(internal)               :    0.000 sec (  0.0%)
W(virtual)                :    0.000 sec (  0.0%)
W(internal)               :    0.000 sec (  0.0%)
L(virtual)                :    0.000 sec (  0.0%)
L(internal)               :    0.000 sec (  0.0%)
G(D)                      :    0.000 sec (  0.0%)
G(Z)                      :    0.000 sec (  0.0%)
Z-Vector Solution         :    0.000 sec (  0.0%)
Z-Vector Solution         :    0.000 sec (  0.0%)
3-Index Derivative 
+ Separable RIJ part      :    0.000 sec (  0.0%)
2-Index Derivative 
+ Separable RIJ part      :    0.000 sec (  0.0%)
Separable Gradient (X)    :    0.000 sec (  0.0%)


---------------------------------------
MP2 TOTAL ENERGY:    -1610.597136732 Eh
---------------------------------------


-------------------------------------------------------------------------------
                          DFT DISPERSION CORRECTION                            
                                                                               
                              DFTD3 V3.1  Rev 1                                
                          USING Becke-Johnson damping                          
-------------------------------------------------------------------------------
The DSD-BLYP/2013 functional is recognized
Active option DFTDOPT                   ...         4   

molecular C6(AA) [au] = 3700.705887 


            DFT-D V3
 parameters
 s6 scaling factor         :     0.5700 
 a1 scaling factor         :     0.0000 
 s8 scaling factor         :     0.0000 
 a2 scaling factor         :     5.4000 
 ad hoc parameters k1-k3   :    16.0000     1.3333    -4.0000 

 Edisp/kcal,au: -12.002242862207  -0.019126789440 
 E6   /kcal   : -12.002242862 
 E8   /kcal   :  -0.000000000 
 % E8         :   0.000000000 

-------------------------   ----------------
Dispersion correction           -0.019126789
-------------------------   ----------------


-------------------------   --------------------
FINAL SINGLE POINT ENERGY     -1610.616263521928
-------------------------   --------------------


                            ***************************************
                            *     ORCA property calculations      *
                            ***************************************


  WARNING: The energy has been calculated at the MP2 level but the densities
           used in the property calculations are still SCF densities
           MP2 response densities have not been calculated 
           use %mp2 Density relaxed end
           or  %mp2 Density unrelaxed end

                                    ---------------------
                                    Active property flags
                                    ---------------------
   (+) Dipole Moment


------------------------------------------------------------------------------
                       ORCA ELECTRIC PROPERTIES CALCULATION
------------------------------------------------------------------------------

Dipole Moment Calculation                       ... on
Quadrupole Moment Calculation                   ... off
Polarizability Calculation                      ... off
GBWName                                         ... MOR07_ed01.gbw
Electron density file                           ... MOR07_ed01.scfp
The origin for moment calculation is the CENTER OF MASS  = (-0.000002,  0.000002 -0.015990)

-------------
DIPOLE MOMENT
-------------
                                X             Y             Z
Electronic contribution:     -0.00035       0.00033      -2.50620
Nuclear contribution   :      0.00017      -0.00015       1.50310
                        -----------------------------------------
Total Dipole Moment    :     -0.00018       0.00018      -1.00311
                        -----------------------------------------
Magnitude (a.u.)       :      1.00311
Magnitude (Debye)      :      2.54969



--------------------
Rotational spectrum 
--------------------
 
Rotational constants in cm-1:     0.031146     0.031144     0.021766 
Rotational constants in MHz :   933.731625   933.679962   652.524637 

 Dipole components along the rotational axes: 
x,y,z [a.u.] :     0.000182     0.000178    -1.003107 
x,y,z [Debye]:     0.000462     0.000453    -2.549695 

 

Timings for individual modules:

Sum of individual times         ...       25.624 sec (=   0.427 min)
GTO integral calculation        ...        0.877 sec (=   0.015 min)   3.4 %
SCF iterations                  ...       22.757 sec (=   0.379 min)  88.8 %
MP2 module                      ...        1.990 sec (=   0.033 min)   7.8 %
                             ****ORCA TERMINATED NORMALLY****
TOTAL RUN TIME: 0 days 0 hours 0 minutes 26 seconds 248 msec
