
                                 *****************
                                 * O   R   C   A *
                                 *****************

           --- An Ab Initio, DFT and Semiempirical electronic structure package ---

                  #######################################################
                  #                        -***-                        #
                  #          Department of theory and spectroscopy      #
                  #               Directorship: Frank Neese             #
                  #        Max Planck Institute fuer Kohlenforschung    #
                  #                Kaiser Wilhelm Platz 1               #
                  #                 D-45470 Muelheim/Ruhr               #
                  #                      Germany                        #
                  #                                                     #
                  #                  All rights reserved                #
                  #                        -***-                        #
                  #######################################################


                         Program Version 4.2.0 -  RELEASE  -


 With contributions from (in alphabetic order):
   Daniel Aravena         : Magnetic Suceptibility
   Michael Atanasov       : Ab Initio Ligand Field Theory (pilot matlab implementation)
   Alexander A. Auer      : GIAO ZORA, VPT2
   Ute Becker             : Parallelization
   Giovanni Bistoni       : ED, misc. LED, open-shell LED, HFLED
   Martin Brehm           : Molecular dynamics
   Dmytro Bykov           : SCF Hessian
   Vijay G. Chilkuri      : MRCI spin determinant printing, contributions to CSF-ICE
   Dipayan Datta          : RHF DLPNO-CCSD density
   Achintya Kumar Dutta   : EOM-CC, STEOM-CC
   Dmitry Ganyushin       : Spin-Orbit,Spin-Spin,Magnetic field MRCI
   Miquel Garcia          : C-PCM Hessian, Gaussian charge scheme
   Yang Guo               : DLPNO-NEVPT2, CIM, IAO-localization
   Andreas Hansen         : Spin unrestricted coupled pair/coupled cluster methods
   Benjamin Helmich-Paris : CASSCF linear response (MC-RPA)
   Lee Huntington         : MR-EOM, pCC
   Robert Izsak           : Overlap fitted RIJCOSX, COSX-SCS-MP3, EOM
   Christian Kollmar      : KDIIS, OOCD, Brueckner-CCSD(T), CCSD density
   Simone Kossmann        : Meta GGA functionals, TD-DFT gradient, OOMP2, MP2 Hessian
   Martin Krupicka        : AUTO-CI
   Lucas Lang             : DCDCAS
   Dagmar Lenk            : GEPOL surface, SMD
   Dimitrios Liakos       : Extrapolation schemes; Compound Job, initial MDCI parallelization
   Dimitrios Manganas     : Further ROCIS development; embedding schemes
   Dimitrios Pantazis     : SARC Basis sets
   Taras Petrenko         : DFT Hessian,TD-DFT gradient, ASA, ECA, R-Raman, ABS, FL, XAS/XES, NRVS
   Peter Pinski           : DLPNO-MP2, DLPNO-MP2 Gradient
   Christoph Reimann      : Effective Core Potentials
   Marius Retegan         : Local ZFS, SOC
   Christoph Riplinger    : Optimizer, TS searches, QM/MM, DLPNO-CCSD(T), (RO)-DLPNO pert. Triples
   Tobias Risthaus        : Range-separated hybrids, TD-DFT gradient, RPA, STAB
   Michael Roemelt        : Original ROCIS implementation
   Masaaki Saitow         : Open-shell DLPNO-CCSD energy and density
   Barbara Sandhoefer     : DKH picture change effects
   Avijit Sen             : IP-ROCIS
   Kantharuban Sivalingam : CASSCF convergence, NEVPT2, FIC-MRCI
   Bernardo de Souza      : ESD, SOC TD-DFT
   Georgi Stoychev        : AutoAux, RI-MP2 NMR
   Willem Van den Heuvel  : Paramagnetic NMR
   Boris Wezisla          : Elementary symmetry handling
   Frank Wennmohs         : Technical directorship


 We gratefully acknowledge several colleagues who have allowed us to
 interface, adapt or use parts of their codes:
   Stefan Grimme, W. Hujo, H. Kruse,             : VdW corrections, initial TS optimization,
                  C. Bannwarth                     DFT functionals, gCP, sTDA/sTD-DF
   Ed Valeev, F. Pavosevic, A. Kumar             : LibInt (2-el integral package), F12 methods
   Garnet Chan, S. Sharma, J. Yang, R. Olivares  : DMRG
   Ulf Ekstrom                                   : XCFun DFT Library
   Mihaly Kallay                                 : mrcc  (arbitrary order and MRCC methods)
   Andreas Klamt, Michael Diedenhofen            : otool_cosmo (COSMO solvation model)
   Jiri Pittner, Ondrej Demel                    : Mk-CCSD
   Frank Weinhold                                : gennbo (NPA and NBO analysis)
   Christopher J. Cramer and Donald G. Truhlar   : smd solvation model
   Lars Goerigk                                  : TD-DFT with DH, B97 family of functionals
   V. Asgeirsson, H. Jonsson                     : NEB implementation
   FAccTs GmbH                                   : IRC, NEB, NEB-TS, Multilevel, MM, QM/MM, CI optimization
   S Lehtola, MJT Oliveira, MAL Marques          : LibXC Library


 Your calculation uses the libint2 library for the computation of 2-el integrals
 For citations please refer to: http://libint.valeyev.net

 Your ORCA version has been built with support for libXC version: 4.2.3
 For citations please refer to: https://tddft.org/programs/libxc/

 This ORCA versions uses:
   CBLAS   interface :  Fast vector & matrix operations
   LAPACKE interface :  Fast linear algebra routines
   SCALAPACK package :  Parallel linear algebra routines


Your calculation utilizes the atom-pairwise dispersion correction
with the Becke-Johnson damping scheme (D3BJ)
Cite in your paper:
S.Grimme, S.Ehrlich, L.Goerigk, J Comput Chem, (2011), 32, 1456–1465 
S.Grimme, J.Antony, S.Ehrlich and H.Krieg, J.Chem.Phys., 132, (2010), 154104 
   

----- Orbital basis set information -----
Your calculation utilizes the basis: def2-TZVPPD
   F. Weigend and R. Ahlrichs, Phys. Chem. Chem. Phys. 7, 3297 (2005).
   D. Rappoport and F. Furche, J. Chem. Phys. 133 134105 (2010).

----- AuxC basis set information -----
Your calculation utilizes the auxiliary basis: def2-TZVPPD/C
   A. Hellweg, C. Hattig, S. Hofener and W. Klopper, Theor. Chem. Acc. 117, 587 (2007).

----- AuxJK basis set information -----
Your calculation utilizes the auxiliary basis: def2/JK
   H-Ba, Hf-Rn: F. Weigend, J. Comput. Chem. 29, 167 (2008).

cite the ECPs for Ir [Def2-ECP] as follows:
Ce-Yb(ecp-28): M. Dolg, H. Stoll, H.Preuss, J. Chem. Phys., 1989, 90, 1730-1734.
Y-Cd(ecp-28), Hf-Hg(ecp-46): D. Andrae,U. Haeussermann, M. Dolg, H. Stoll, H. Preuss, Theor. Chim. Acta, 1990, 77, 123-141.
In-Sb(ecp-28), Tl-Bi(ecp-46): B. Metz, H. Stoll, M. Dolg, J. Chem. Phys., 2000, 113, 2563-2569.
Te-Xe(ecp-28), Po-Rn(ecp-46): K. A. Peterson, D. Figgen, E. Goll, H. Stoll, M. Dolg, J. Chem. Phys., 2003, 119, 11113-11123.
Rb(ecp-28), Cs(ecp-46): T. Leininger, A. Nicklass, W. Kuechle, H. Stoll, M. Dolg, A. Bergner, Chem. Phys. Lett., 1996, 255, 274-280.
Sr(ecp-28), Ba(ecp-46): M. Kaupp, P. V. Schleyer, H. Stoll and H. Preuss, J. Chem. Phys., 1991, 94, 1360-1366.
La(ecp-46): M. Dolg, H. Stoll, A. Savin, H. Preuss, Theor. Chim. Acta, 1989, 75, 173-194.
Lu(ecp-28): X. Cao, M. Dolg, J. Chem. Phys., 2001, 115, 7348-7355.

ECP parameters for Ir [Def2-ECP] have been obtained from:
TURBOMOLE (7.0.2)

================================================================================
                                        WARNINGS
                       Please study these warnings very carefully!
================================================================================


WARNING: No MP2 level density has been requested!
         To caclulate MP2 level properties use
         %mp2 Density relaxed end
         or
         %mp2 Density unrelaxed end
         Otherwise for double-hybrid DFT only the energy is correct!

WARNING: There are different parametrizations of Gershom Martin's DSD-DFs
         for use with and without D3(BJ)!
         You are using the D3(BJ) parametrized version,
         consistent with the 2013 article (S. Kozuch and J. M. L. Martin, JCC 2013, 34, 2327)

WARNING: The frozen-core approximation is turned on by default for 
         the MP2 part of double-hybrid DFT.

INFO   : the flag for use of LIBINT has been found!

================================================================================
                                       INPUT FILE
================================================================================
NAME = MOR12_ed18.in
|  1> #
|  2> # MOR12_ed18 ri-DSD-BLYP/2013-D3BJ/Def2-TZVPPD
|  3> #
|  4> ! rijk ri-dsd-blyp/2013 d3bj def2-tzvppd def2/jk def2-tzvppd/c grid4 nofinalgrid
|  5> 
|  6> *xyz 0 1
|  7> Ir       0.000009    0.119441   -0.001134 
|  8> P        2.313164   -0.026854    0.000864 
|  9> C        3.266155    1.538041    0.001301 
| 10> C        2.990776   -0.938546    1.437922 
| 11> H        4.076753   -1.056364    1.355244 
| 12> H        4.080827   -1.059585   -1.345638 
| 13> H        2.508332   -1.918605    1.474823 
| 14> H        2.511934   -1.920062   -1.470843 
| 15> H        3.000883    2.123603    0.885753 
| 16> H        2.748975   -0.395301    2.355327 
| 17> C        2.995346   -0.940504   -1.432774 
| 18> H        4.343510    1.342437    0.003886 
| 19> H        2.757870   -0.397739   -2.351580 
| 20> H        3.004825    2.121649   -0.885628 
| 21> P       -2.313239   -0.026297    0.000821 
| 22> C       -3.266059    1.538685   -0.001751 
| 23> C       -2.995240   -0.942628   -1.431183 
| 24> H       -2.509974   -1.915937    1.477317 
| 25> H       -4.077346   -1.051885    1.357522 
| 26> H       -2.748166   -0.391240    2.356043 
| 27> C       -2.991181   -0.935299    1.439450 
| 28> H       -2.510085   -1.921339   -1.468610 
| 29> H       -4.080420   -1.063528   -1.342825 
| 30> H       -4.343438    1.343207   -0.001601 
| 31> H       -3.002541    2.121837   -0.888321 
| 32> H       -2.759672   -0.400400   -2.350803 
| 33> H       -3.002807    2.124611    0.883073 
| 34> C        0.000649    1.940082   -0.001490 
| 35> O        0.001240    3.110505   -0.001979 
| 36> Cl      -0.000683   -2.266357   -0.002005 
| 37> *
| 38> 
| 39> %maxcore 5000
| 40> 
| 41> %pal
| 42> nprocs = 24
| 43> end
| 44> 
| 45> 
| 46>                          ****END OF INPUT****
================================================================================

                       ****************************
                       * Single Point Calculation *
                       ****************************

---------------------------------
CARTESIAN COORDINATES (ANGSTROEM)
---------------------------------
  Ir     0.000009    0.119441   -0.001134
  P      2.313164   -0.026854    0.000864
  C      3.266155    1.538041    0.001301
  C      2.990776   -0.938546    1.437922
  H      4.076753   -1.056364    1.355244
  H      4.080827   -1.059585   -1.345638
  H      2.508332   -1.918605    1.474823
  H      2.511934   -1.920062   -1.470843
  H      3.000883    2.123603    0.885753
  H      2.748975   -0.395301    2.355327
  C      2.995346   -0.940504   -1.432774
  H      4.343510    1.342437    0.003886
  H      2.757870   -0.397739   -2.351580
  H      3.004825    2.121649   -0.885628
  P     -2.313239   -0.026297    0.000821
  C     -3.266059    1.538685   -0.001751
  C     -2.995240   -0.942628   -1.431183
  H     -2.509974   -1.915937    1.477317
  H     -4.077346   -1.051885    1.357522
  H     -2.748166   -0.391240    2.356043
  C     -2.991181   -0.935299    1.439450
  H     -2.510085   -1.921339   -1.468610
  H     -4.080420   -1.063528   -1.342825
  H     -4.343438    1.343207   -0.001601
  H     -3.002541    2.121837   -0.888321
  H     -2.759672   -0.400400   -2.350803
  H     -3.002807    2.124611    0.883073
  C      0.000649    1.940082   -0.001490
  O      0.001240    3.110505   -0.001979
  Cl    -0.000683   -2.266357   -0.002005

----------------------------
CARTESIAN COORDINATES (A.U.)
----------------------------
  NO LB      ZA    FRAG     MASS         X           Y           Z
   0 Ir   17.0000*   0   192.220    0.000017    0.225711   -0.002143
   1 P    15.0000    0    30.974    4.371246   -0.050747    0.001633
   2 C     6.0000    0    12.011    6.172138    2.906476    0.002459
   3 C     6.0000    0    12.011    5.651748   -1.773595    2.717279
   4 H     1.0000    0     1.008    7.703947   -1.996239    2.561040
   5 H     1.0000    0     1.008    7.711645   -2.002325   -2.542887
   6 H     1.0000    0     1.008    4.740061   -3.625638    2.787012
   7 H     1.0000    0     1.008    4.746867   -3.628391   -2.779490
   8 H     1.0000    0     1.008    5.670847    4.013028    1.673831
   9 H     1.0000    0     1.008    5.194810   -0.747011    4.450923
  10 C     6.0000    0    12.011    5.660384   -1.777295   -2.707550
  11 H     1.0000    0     1.008    8.208044    2.536838    0.007343
  12 H     1.0000    0     1.008    5.211619   -0.751618   -4.443842
  13 H     1.0000    0     1.008    5.678296    4.009336   -1.673594
  14 P    15.0000    0    30.974   -4.371388   -0.049694    0.001551
  15 C     6.0000    0    12.011   -6.171957    2.907693   -0.003309
  16 C     6.0000    0    12.011   -5.660183   -1.781309   -2.704544
  17 H     1.0000    0     1.008   -4.743163   -3.620596    2.791725
  18 H     1.0000    0     1.008   -7.705067   -1.987775    2.565345
  19 H     1.0000    0     1.008   -5.193281   -0.739336    4.452276
  20 C     6.0000    0    12.011   -5.652513   -1.767459    2.720166
  21 H     1.0000    0     1.008   -4.743373   -3.630805   -2.775271
  22 H     1.0000    0     1.008   -7.710876   -2.009777   -2.537571
  23 H     1.0000    0     1.008   -8.207908    2.538293   -0.003025
  24 H     1.0000    0     1.008   -5.673980    4.009691   -1.678683
  25 H     1.0000    0     1.008   -5.215024   -0.756646   -4.442374
  26 H     1.0000    0     1.008   -5.674483    4.014933    1.668766
  27 C     6.0000    0    12.011    0.001226    3.666224   -0.002816
  28 O     8.0000    0    15.999    0.002343    5.878003   -0.003740
  29 Cl   17.0000    0    35.453   -0.001291   -4.282794   -0.003789
* core charge reduced due to ECP

--------------------------------
INTERNAL COORDINATES (ANGSTROEM)
--------------------------------
 Ir     0   0   0     0.000000000000     0.00000000     0.00000000
 P      1   0   0     2.317777442520     0.00000000     0.00000000
 C      2   1   0     1.832235901317   117.72177370     0.00000000
 C      2   1   3     1.831795845822   113.65757778   121.12798062
 H      4   2   1     1.095473768439   111.16341822   175.21627236
 H      2   1   3     2.450353736899   138.25200381   235.72495129
 H      4   2   1     1.092991098051   108.02818949    54.31460447
 H      6   2   1     1.793745301040    67.01898320   334.09077090
 H      3   2   1     1.093392623961   109.35427096    59.06046738
 H      4   2   1     1.093258792625   109.21962101   296.31864373
 C      8   6   2     1.093009737317    34.99687860    41.14291417
 H      3   2   1     1.094970959919   111.05008763   179.90893779
 H     11   8   6     1.093248901869   108.63837472   120.06974055
 H      3   2   1     1.093405102240   109.35176155   300.75229634
 P      1   2   3     2.317835131361   172.77554717   180.76342502
 C     15   1   2     1.832223028975   117.72955964   179.34225943
 C     15   1   2     1.831781461195   113.72660953   300.54308168
 H     15   1   2     2.406134748480    97.55625053    37.46197413
 H     18  15   1     1.793764668822    69.64508389   162.71813710
 H     18  15   1     1.775836634871    68.92010401    97.92876377
 C     18  15   1     1.092998158087    46.38008135   131.30214215
 H     17  15   1     1.093001086859   108.02550709    54.03736639
 H     17  15   1     1.095463179922   111.16005798   174.93249051
 H     16  15   1     1.094969031811   111.05081062   179.94248970
 H     16  15   1     1.093395791252   109.35101048    59.09629780
 H     17  15   1     1.093254056022   109.22400842   296.03605246
 H     16  15   1     1.093400385932   109.35209855   300.78865639
 C      1   2   3     1.820641147293    93.59870702     0.00000000
 O     28   1   2     1.170423251363   179.98452606    55.43259166
 Cl     1   2   3     2.385798259348    86.39779865   179.96541454

---------------------------
INTERNAL COORDINATES (A.U.)
---------------------------
 Ir     0   0   0     0.000000000000     0.00000000     0.00000000
 P      1   0   0     4.379964605743     0.00000000     0.00000000
 C      2   1   0     3.462424066228   117.72177370     0.00000000
 C      2   1   3     3.461592481859   113.65757778   121.12798062
 H      4   2   1     2.070145409244   111.16341822   175.21627236
 H      2   1   3     4.630497493969   138.25200381   235.72495129
 H      4   2   1     2.065453842130   108.02818949    54.31460447
 H      6   2   1     3.389687372974    67.01898320   334.09077090
 H      3   2   1     2.066212616136   109.35427096    59.06046738
 H      4   2   1     2.065959711562   109.21962101   296.31864373
 C      8   6   2     2.065489065238    34.99687860    41.14291417
 H      3   2   1     2.069195238844   111.05008763   179.90893779
 H     11   8   6     2.065941020742   108.63837472   120.06974055
 H      3   2   1     2.066236196666   109.35176155   300.75229634
 P      1   2   3     4.380073621854   172.77554717   180.76342502
 C     15   1   2     3.462399741027   117.72955964   179.34225943
 C     15   1   2     3.461565298853   113.72660953   300.54308168
 H     15   1   2     4.546935715938    97.55625053    37.46197413
 H     18  15   1     3.389723972777    69.64508389   162.71813710
 H     18  15   1     3.355844898490    68.92010401    97.92876377
 C     18  15   1     2.065467183665    46.38008135   131.30214215
 H     17  15   1     2.065472718242   108.02550709    54.03736639
 H     17  15   1     2.070125399846   111.16005798   174.93249051
 H     16  15   1     2.069191595248   111.05081062   179.94248970
 H     16  15   1     2.066218601449   109.35101048    59.09629780
 H     17  15   1     2.065950760680   109.22400842   296.03605246
 H     16  15   1     2.066227284135   109.35209855   300.78865639
 C      1   2   3     3.440513156532    93.59870702     0.00000000
 O     28   1   2     2.211779405850   179.98452606    55.43259166
 Cl     1   2   3     4.508505320954    86.39779865   179.96541454

---------------------
BASIS SET INFORMATION
---------------------
There are 6 groups of distinct atoms

 Group   1 Type Ir  : 8s8p6d2f1g contracted to 6s5p3d2f1g pattern {311111/41111/411/11/1}
 Group   2 Type P   : 15s9p4d1f contracted to 6s5p4d1f pattern {732111/51111/1111/1}
 Group   3 Type C   : 12s6p3d1f contracted to 6s3p3d1f pattern {621111/411/111/1}
 Group   4 Type H   : 5s3p1d contracted to 3s3p1d pattern {311/111/1}
 Group   5 Type O   : 12s7p3d1f contracted to 6s4p3d1f pattern {621111/4111/111/1}
 Group   6 Type Cl  : 15s10p4d1f contracted to 6s6p4d1f pattern {732111/511111/1111/1}

Atom   0Ir   basis set group =>   1
Atom   1P    basis set group =>   2
Atom   2C    basis set group =>   3
Atom   3C    basis set group =>   3
Atom   4H    basis set group =>   4
Atom   5H    basis set group =>   4
Atom   6H    basis set group =>   4
Atom   7H    basis set group =>   4
Atom   8H    basis set group =>   4
Atom   9H    basis set group =>   4
Atom  10C    basis set group =>   3
Atom  11H    basis set group =>   4
Atom  12H    basis set group =>   4
Atom  13H    basis set group =>   4
Atom  14P    basis set group =>   2
Atom  15C    basis set group =>   3
Atom  16C    basis set group =>   3
Atom  17H    basis set group =>   4
Atom  18H    basis set group =>   4
Atom  19H    basis set group =>   4
Atom  20C    basis set group =>   3
Atom  21H    basis set group =>   4
Atom  22H    basis set group =>   4
Atom  23H    basis set group =>   4
Atom  24H    basis set group =>   4
Atom  25H    basis set group =>   4
Atom  26H    basis set group =>   4
Atom  27C    basis set group =>   3
Atom  28O    basis set group =>   5
Atom  29Cl   basis set group =>   6
---------------------------------
AUXILIARY/C BASIS SET INFORMATION
---------------------------------
There are 6 groups of distinct atoms

 Group   1 Type Ir  : 9s9p8d5f4g3h1i contracted to 9s9p8d5f4g3h1i pattern {111111111/111111111/11111111/11111/1111/111/1}
 Group   2 Type P   : 12s9p8d6f2g contracted to 12s9p8d6f2g pattern {111111111111/111111111/11111111/111111/11}
 Group   3 Type C   : 9s7p6d4f1g contracted to 9s7p5d4f1g pattern {111111111/1111111/21111/1111/1}
 Group   4 Type H   : 5s4p3d1f contracted to 5s4p3d1f pattern {11111/1111/111/1}
 Group   5 Type O   : 9s7p6d4f1g contracted to 9s7p5d4f1g pattern {111111111/1111111/21111/1111/1}
 Group   6 Type Cl  : 12s9p8d6f2g contracted to 12s9p8d6f2g pattern {111111111111/111111111/11111111/111111/11}

Atom   0Ir   basis set group =>   1
Atom   1P    basis set group =>   2
Atom   2C    basis set group =>   3
Atom   3C    basis set group =>   3
Atom   4H    basis set group =>   4
Atom   5H    basis set group =>   4
Atom   6H    basis set group =>   4
Atom   7H    basis set group =>   4
Atom   8H    basis set group =>   4
Atom   9H    basis set group =>   4
Atom  10C    basis set group =>   3
Atom  11H    basis set group =>   4
Atom  12H    basis set group =>   4
Atom  13H    basis set group =>   4
Atom  14P    basis set group =>   2
Atom  15C    basis set group =>   3
Atom  16C    basis set group =>   3
Atom  17H    basis set group =>   4
Atom  18H    basis set group =>   4
Atom  19H    basis set group =>   4
Atom  20C    basis set group =>   3
Atom  21H    basis set group =>   4
Atom  22H    basis set group =>   4
Atom  23H    basis set group =>   4
Atom  24H    basis set group =>   4
Atom  25H    basis set group =>   4
Atom  26H    basis set group =>   4
Atom  27C    basis set group =>   3
Atom  28O    basis set group =>   5
Atom  29Cl   basis set group =>   6
----------------------------------
AUXILIARY/JK BASIS SET INFORMATION
----------------------------------
There are 6 groups of distinct atoms

 Group   1 Type Ir  : 13s12p11d9f5g3h2i contracted to 11s9p9d7f4g3h2i pattern {31111111111/411111111/311111111/3111111/2111/111/11}
 Group   2 Type P   : 16s12p10d4f1g contracted to 13s11p9d4f1g pattern {4111111111111/21111111111/211111111/1111/1}
 Group   3 Type C   : 14s10p6d2f1g contracted to 10s8p5d1f1g pattern {5111111111/31111111/21111/2/1}
 Group   4 Type H   : 4s2p2d contracted to 2s2p2d pattern {31/11/11}
 Group   5 Type O   : 14s10p6d2f1g contracted to 10s8p4d2f1g pattern {5111111111/31111111/3111/11/1}
 Group   6 Type Cl  : 16s12p10d4f1g contracted to 13s11p9d4f1g pattern {4111111111111/21111111111/211111111/1111/1}

Atom   0Ir   basis set group =>   1
Atom   1P    basis set group =>   2
Atom   2C    basis set group =>   3
Atom   3C    basis set group =>   3
Atom   4H    basis set group =>   4
Atom   5H    basis set group =>   4
Atom   6H    basis set group =>   4
Atom   7H    basis set group =>   4
Atom   8H    basis set group =>   4
Atom   9H    basis set group =>   4
Atom  10C    basis set group =>   3
Atom  11H    basis set group =>   4
Atom  12H    basis set group =>   4
Atom  13H    basis set group =>   4
Atom  14P    basis set group =>   2
Atom  15C    basis set group =>   3
Atom  16C    basis set group =>   3
Atom  17H    basis set group =>   4
Atom  18H    basis set group =>   4
Atom  19H    basis set group =>   4
Atom  20C    basis set group =>   3
Atom  21H    basis set group =>   4
Atom  22H    basis set group =>   4
Atom  23H    basis set group =>   4
Atom  24H    basis set group =>   4
Atom  25H    basis set group =>   4
Atom  26H    basis set group =>   4
Atom  27C    basis set group =>   3
Atom  28O    basis set group =>   5
Atom  29Cl   basis set group =>   6
-------------------------
ECP PARAMETER INFORMATION
-------------------------

 Group 1, Type Ir ECP Def2-ECP (replacing 60 core electrons, lmax=3)

Atom   0Ir   ECP group =>   1



           ************************************************************
           *        Program running with 24 parallel MPI-processes    *
           *              working on a common directory               *
           ************************************************************
------------------------------------------------------------------------------
                           ORCA GTO INTEGRAL CALCULATION
                           -- RI-GTO INTEGRALS CHOSEN --
------------------------------------------------------------------------------

                         BASIS SET STATISTICS AND STARTUP INFO

Gaussian basis set:
 # of primitive gaussian shells          ...  452
 # of primitive gaussian functions       ... 1056
 # of contracted shells                  ...  297
 # of contracted basis functions         ...  811
 Highest angular momentum                ...    4
 Maximum contraction depth               ...    7
Auxiliary gaussian basis set:
 # of primitive gaussian shells          ...  592
 # of primitive gaussian functions       ... 1824
 # of contracted shells                  ...  467
 # of contracted aux-basis functions     ... 1537
 Highest angular momentum                ...    6
 Maximum contraction depth               ...    5
Ratio of auxiliary to basis functions    ...  1.90
Integral package used                  ... LIBINT
 One Electron integrals                  
   ECP integrals                         ... done
 Ordering auxiliary basis shells         ... done
 Integral threshhold             Thresh  ...  1.000e-10
 Primitive cut-off               TCut    ...  1.000e-11
 Pre-screening matrix                    ... done
 Shell pair data                         ... 
 Ordering of the shell pairs             ... done (   0.006 sec) 35569 of 44253 pairs
 Determination of significant pairs      ... done (   0.000 sec)
 Creation of shell pair data             ... done (   0.003 sec)
 Storage of shell pair data              ... done (   0.011 sec)
 Shell pair data done in (   0.021 sec)
 Computing two index integrals           ... done
 Cholesky decomposition of the V-matrix  ... done


Timings:
 Total evaluation time                   ...   3.487 sec (  0.058 min)
 One electron matrix time                ...   2.912 sec (  0.049 min) = 83.5%
 Schwartz matrix evaluation time         ...   0.315 sec (  0.005 min) =  9.0%
 Two index repulsion integral time       ...   0.110 sec (  0.002 min) =  3.2%
 Cholesky decomposition of V             ...   0.101 sec (  0.002 min) =  2.9%
 Three index repulsion integral time     ...   0.000 sec (  0.000 min) =  0.0%



           ************************************************************
           *        Program running with 24 parallel MPI-processes    *
           *              working on a common directory               *
           ************************************************************
-------------------------------------------------------------------------------
                                 ORCA SCF
-------------------------------------------------------------------------------

------------
SCF SETTINGS
------------
Hamiltonian:
 Density Functional     Method          .... DFT(GTOs)
 Exchange Functional    Exchange        .... B88
   X-Alpha parameter    XAlpha          ....  0.666667
   Becke's b parameter  XBeta           ....  0.004200
 Correlation Functional Correlation     .... LYP
 LDA part of GGA corr.  LDAOpt          .... VWN-5
 Gradients option       PostSCFGGA      .... off
 Hybrid DFT is turned on
   Fraction HF Exchange ScalHFX         ....  0.710000
   Scaling of DF-GGA-X  ScalDFX         ....  0.290000
   Scaling of DF-GGA-C  ScalDFC         ....  0.540000
   Scaling of DF-LDA-C  ScalLDAC        ....  0.540000
   Perturbative correction              ....  1.000000
   Density functional embedding theory  .... OFF
 RI-approximation to the Coulomb term is turned on
   Number of auxiliary basis functions  .... 1537
   RI-JK (J+K treated both via RI)      .... on


General Settings:
 Integral files         IntName         .... MOR12_ed18
 Hartree-Fock type      HFTyp           .... RHF
 Total Charge           Charge          ....    0
 Multiplicity           Mult            ....    1
 Number of Electrons    NEL             ....  132
 Basis Dimension        Dim             ....  811
 Nuclear Repulsion      ENuc            ....   1289.6809262071 Eh

Convergence Acceleration:
 DIIS                   CNVDIIS         .... on
   Start iteration      DIISMaxIt       ....    12
   Startup error        DIISStart       ....  0.200000
   # of expansion vecs  DIISMaxEq       ....     5
   Bias factor          DIISBfac        ....   1.050
   Max. coefficient     DIISMaxC        ....  10.000
 Newton-Raphson         CNVNR           .... off
 SOSCF                  CNVSOSCF        .... off
 Level Shifting         CNVShift        .... on
   Level shift para.    LevelShift      ....    0.2500
   Turn off err/grad.   ShiftErr        ....    0.0010
 Zerner damping         CNVZerner       .... off
 Static damping         CNVDamp         .... on
   Fraction old density DampFac         ....    0.7000
   Max. Damping (<1)    DampMax         ....    0.9800
   Min. Damping (>=0)   DampMin         ....    0.0000
   Turn off err/grad.   DampErr         ....    0.1000
 Fernandez-Rico         CNVRico         .... off

SCF Procedure:
 Maximum # iterations   MaxIter         ....   125
 SCF integral mode      SCFMode         .... Direct
   Integral package                     .... LIBINT
 Reset frequency        DirectResetFreq ....    20
 Integral Threshold     Thresh          ....  1.000e-10 Eh
 Primitive CutOff       TCut            ....  1.000e-11 Eh

Convergence Tolerance:
 Convergence Check Mode ConvCheckMode   .... Total+1el-Energy
 Convergence forced     ConvForced      .... 0
 Energy Change          TolE            ....  1.000e-06 Eh
 1-El. energy change                    ....  1.000e-03 Eh
 DIIS Error             TolErr          ....  1.000e-06


Diagonalization of the overlap matrix:
Smallest eigenvalue                        ... 6.547e-06
Time for diagonalization                   ...    0.110 sec
Threshold for overlap eigenvalues          ... 1.000e-08
Number of eigenvalues below threshold      ... 0
Time for construction of square roots      ...    0.087 sec
Total time needed                          ...    0.199 sec

-------------------
DFT GRID GENERATION
-------------------

General Integration Accuracy     IntAcc      ...  4.670
Radial Grid Type                 RadialGrid  ... Gauss-Chebyshev
Angular Grid (max. acc.)         AngularGrid ... Lebedev-302
Angular grid pruning method      GridPruning ... 3 (G Style)
Weight generation scheme         WeightScheme... Becke
Basis function cutoff            BFCut       ...    1.0000e-10
Integration weight cutoff        WCut        ...    1.0000e-14
Grids for H and He will be reduced by one unit

# of grid points (after initial pruning)     ... 142870 (   0.0 sec)
# of grid points (after weights+screening)   ... 127421 (   0.1 sec)
nearest neighbour list constructed           ...    0.0 sec
Grid point re-assignment to atoms done       ...    0.0 sec
Grid point division into batches done        ...    0.4 sec
Reduced shell lists constructed in    0.8 sec

Total number of grid points                  ...   127421
Total number of batches                      ...     2005
Average number of points per batch           ...       63
Average number of grid points per atom       ...     4247
Average number of shells per batch           ...   188.45 (63.45%)
Average number of basis functions per batch  ...   514.12 (63.39%)
Average number of large shells per batch     ...   143.04 (75.90%)
Average number of large basis fcns per batch ...   393.44 (76.53%)
Average number of aux-shells per batch       ...   188.45 (40.35%)
Average number of aux functions per batch    ...   514.12 (33.45%)
Maximum spatial batch extension              ...   2.56,  2.32,  2.01 au
Average spatial batch extension              ...   0.06,  0.05,  0.05 au

Time for grid setup =    0.984 sec

------------------------------
INITIAL GUESS: MODEL POTENTIAL
------------------------------
Loading Hartree-Fock densities                     ... done
  calling /sw/apps/orca/orca_4_2_0_linux_x86-64_openmpi314/orca MOR12_ed18_atom77.inp > MOR12_ed18_atom77.out in order to generate an atomic fitting density for atom 0 (Ir with ECP) on-the-fly... 
    atom 0 (Ir), assumed electronic state with S=4: 1s2 2s2 2p6 3s2 3p6 4s2 3d10 4p6 5s2 4d10 5p6 6s2 4f14 5d7           ... done
Calculating cut-offs                               ... done
Setting up the integral package                    ... done
Initializing the effective Hamiltonian             ... done
Starting the Coulomb interaction                   ... done (   0.1 sec)
Reading the grid                                   ... done
Mapping shells                                     ... done
Starting the XC term evaluation                    ... done (   0.3 sec)
  promolecular density results
     # of electrons  =    191.994075396
     EX              =   -472.920319806
     EC              =     -1.014252416
     EX+EC           =   -473.934572222
Transforming the Hamiltonian                       ... done (   0.1 sec)
Diagonalizing the Hamiltonian                      ... done (   0.1 sec)
Back transforming the eigenvectors                 ... done (   0.0 sec)
Now organizing SCF variables                       ... done
                      ------------------
                      INITIAL GUESS DONE (   2.7 sec)
                      ------------------
--------------
SCF ITERATIONS
--------------
ITER       Energy         Delta-E        Max-DP      RMS-DP      [F,P]     Damp
  0  -1592.6513482824   0.000000000000243.23754659  0.57561561  1.0975001 0.7000
  1  -1592.8843827399  -0.233034457540106.81417824  0.27330033  0.5092536 0.7000
                               ***Turning on DIIS***
  2  -1592.9714784409  -0.087095700955105.04082778  0.25401332  0.1944045 0.7000
  3  -1596.0164015051  -3.04492306428873.49747567  0.17779903  0.1238332 0.7000
  4  -1596.6330686916  -0.61666718646551.47354917  0.12449260  0.1702271 0.7000
  5  -1596.9074641550  -0.27439546342136.04322422  0.08716102  0.1888274 0.7000
  6  -1597.0937018973  -0.18623774222425.23517335  0.06101951  0.1831346 0.7000
  7  -1597.2278462052  -0.13414430796917.66835284  0.04271870  0.1822598 0.7000
  8  -1597.3265561375  -0.09870993229812.35877376  0.02988805  0.1795617 0.7000
  9  -1597.4076296642  -0.081073526700 8.66380113  0.02094068  0.1770373 0.7000
 10  -1597.4939963682  -0.086366703999 6.09628214  0.01471453  0.1547832 0.7000
 11  -1597.5108542206  -0.01685785239314.19717656  0.03432128  0.0915504 0.0000
 12  -1597.7624860189  -0.251631798271 0.03166145  0.00021844  0.1254432 0.7000
 13  -1597.8277749770  -0.065288958074 0.02825080  0.00020688  0.1094767 0.7000
 14  -1597.8492418022  -0.021466825228 0.06128749  0.00054062  0.0799185 0.0000
 15  -1597.8404778878   0.008763914381 0.02077954  0.00007379  0.0122361 0.0000
 16  -1597.8413634520  -0.000885564228 0.00179253  0.00002290  0.0036449 0.0000
 17  -1597.8414577760  -0.000094323998 0.00203535  0.00001483  0.0025979 0.0000
 18  -1597.8414952744  -0.000037498331 0.00270899  0.00001286  0.0010290 0.0000
 19  -1597.8415052368  -0.000009962438 0.00160216  0.00000923  0.0005246 0.0000
 20  -1597.8415084854  -0.000003248559 0.00076318  0.00000432  0.0003371 0.0000
 21  -1597.8415091791  -0.000000693776 0.00102853  0.00000466  0.0002223 0.0000
                 **** Energy Check signals convergence ****

               *****************************************************
               *                     SUCCESS                       *
               *           SCF CONVERGED AFTER  22 CYCLES          *
               *****************************************************


----------------
TOTAL SCF ENERGY
----------------

Total Energy       :        -1597.84150946 Eh          -43479.47793 eV

Components:
Nuclear Repulsion  :         1289.68092621 Eh           35094.00215 eV
Electronic Energy  :        -2887.52243567 Eh          -78573.48007 eV
One Electron Energy:        -4806.93699338 Eh         -130803.40551 eV
Two Electron Energy:         1919.41455771 Eh           52229.92543 eV

Virial components:
Potential Energy   :        -3125.00185692 Eh          -85035.62365 eV
Kinetic Energy     :         1527.16034746 Eh           41556.14573 eV
Virial Ratio       :            2.04628274


DFT components:
N(Alpha)           :       66.000286975453 electrons
N(Beta)            :       66.000286975453 electrons
N(Total)           :      132.000573950905 electrons
E(X)               :      -38.817360966489 Eh       
E(C)               :       -2.564936176348 Eh       
E(XC)              :      -41.382297142837 Eh       
DFET-embed. en.    :        0.000000000000 Eh       

---------------
SCF CONVERGENCE
---------------

  Last Energy change         ...   -2.8491e-07  Tolerance :   1.0000e-06
  Last MAX-Density change    ...    9.3694e-04  Tolerance :   1.0000e-05
  Last RMS-Density change    ...    5.9979e-06  Tolerance :   1.0000e-06
  Last DIIS Error            ...    5.4590e-05  Tolerance :   1.0000e-06

             **** THE GBW FILE WAS UPDATED (MOR12_ed18.gbw) ****
             **** DENSITY FILE WAS UPDATED (MOR12_ed18.scfp) ****
             **** ENERGY FILE WAS UPDATED (MOR12_ed18.en.tmp) ****
             **** THE GBW FILE WAS UPDATED (MOR12_ed18.gbw) ****
             **** DENSITY FILE WAS UPDATED (MOR12_ed18.scfp) ****
----------------
ORBITAL ENERGIES
----------------

  NO   OCC          E(Eh)            E(eV) 
   0   2.0000    -103.566235     -2818.1805 
   1   2.0000     -78.937198     -2147.9904 
   2   2.0000     -78.937187     -2147.9901 
   3   2.0000     -20.091662      -546.7219 
   4   2.0000     -10.968158      -298.4588 
   5   2.0000     -10.858756      -295.4818 
   6   2.0000     -10.858754      -295.4817 
   7   2.0000     -10.852311      -295.3064 
   8   2.0000     -10.852300      -295.3061 
   9   2.0000     -10.852291      -295.3058 
  10   2.0000     -10.852249      -295.3047 
  11   2.0000     -10.082802      -274.3670 
  12   2.0000      -7.655105      -208.3060 
  13   2.0000      -7.653774      -208.2698 
  14   2.0000      -7.653526      -208.2630 
  15   2.0000      -7.172805      -195.1819 
  16   2.0000      -7.172794      -195.1817 
  17   2.0000      -5.164875      -140.5434 
  18   2.0000      -5.164865      -140.5431 
  19   2.0000      -5.164662      -140.5376 
  20   2.0000      -5.164651      -140.5373 
  21   2.0000      -5.163103      -140.4952 
  22   2.0000      -5.163093      -140.4949 
  23   2.0000      -4.001739      -108.8929 
  24   2.0000      -2.257878       -61.4400 
  25   2.0000      -2.246965       -61.1430 
  26   2.0000      -2.223831       -60.5135 
  27   2.0000      -1.321590       -35.9623 
  28   2.0000      -0.952137       -25.9090 
  29   2.0000      -0.948790       -25.8179 
  30   2.0000      -0.909368       -24.7452 
  31   2.0000      -0.866078       -23.5672 
  32   2.0000      -0.865298       -23.5460 
  33   2.0000      -0.861235       -23.4354 
  34   2.0000      -0.861183       -23.4340 
  35   2.0000      -0.706242       -19.2178 
  36   2.0000      -0.681305       -18.5393 
  37   2.0000      -0.669745       -18.2247 
  38   2.0000      -0.586489       -15.9592 
  39   2.0000      -0.563528       -15.3344 
  40   2.0000      -0.559772       -15.2322 
  41   2.0000      -0.549878       -14.9629 
  42   2.0000      -0.546502       -14.8711 
  43   2.0000      -0.543496       -14.7893 
  44   2.0000      -0.539316       -14.6755 
  45   2.0000      -0.537624       -14.6295 
  46   2.0000      -0.537055       -14.6140 
  47   2.0000      -0.516526       -14.0554 
  48   2.0000      -0.513371       -13.9695 
  49   2.0000      -0.513183       -13.9644 
  50   2.0000      -0.511490       -13.9184 
  51   2.0000      -0.496869       -13.5205 
  52   2.0000      -0.496490       -13.5102 
  53   2.0000      -0.443034       -12.0556 
  54   2.0000      -0.440160       -11.9774 
  55   2.0000      -0.436906       -11.8888 
  56   2.0000      -0.434068       -11.8116 
  57   2.0000      -0.432098       -11.7580 
  58   2.0000      -0.387475       -10.5437 
  59   2.0000      -0.384643       -10.4667 
  60   2.0000      -0.373191       -10.1550 
  61   2.0000      -0.334065        -9.0904 
  62   2.0000      -0.312991        -8.5169 
  63   2.0000      -0.307336        -8.3630 
  64   2.0000      -0.295953        -8.0533 
  65   2.0000      -0.280695        -7.6381 
  66   0.0000       0.026240         0.7140 
  67   0.0000       0.036201         0.9851 
  68   0.0000       0.036229         0.9858 
  69   0.0000       0.047302         1.2872 
  70   0.0000       0.064798         1.7633 
  71   0.0000       0.072929         1.9845 
  72   0.0000       0.075116         2.0440 
  73   0.0000       0.076460         2.0806 
  74   0.0000       0.084526         2.3001 
  75   0.0000       0.086691         2.3590 
  76   0.0000       0.090202         2.4545 
  77   0.0000       0.096953         2.6382 
  78   0.0000       0.099242         2.7005 
  79   0.0000       0.105920         2.8822 
  80   0.0000       0.107227         2.9178 
  81   0.0000       0.110720         3.0129 
  82   0.0000       0.116635         3.1738 
  83   0.0000       0.119951         3.2640 
  84   0.0000       0.126926         3.4538 
  85   0.0000       0.128925         3.5082 
  86   0.0000       0.133883         3.6431 
  87   0.0000       0.141885         3.8609 
  88   0.0000       0.148692         4.0461 
  89   0.0000       0.149313         4.0630 
  90   0.0000       0.149430         4.0662 
  91   0.0000       0.158827         4.3219 
  92   0.0000       0.163639         4.4528 
  93   0.0000       0.166090         4.5195 
  94   0.0000       0.166986         4.5439 
  95   0.0000       0.167970         4.5707 
  96   0.0000       0.169871         4.6224 
  97   0.0000       0.175797         4.7837 
  98   0.0000       0.177084         4.8187 
  99   0.0000       0.180251         4.9049 
 100   0.0000       0.181733         4.9452 
 101   0.0000       0.184304         5.0152 
 102   0.0000       0.185871         5.0578 
 103   0.0000       0.189415         5.1543 
 104   0.0000       0.192110         5.2276 
 105   0.0000       0.193711         5.2711 
 106   0.0000       0.203438         5.5358 
 107   0.0000       0.213104         5.7988 
 108   0.0000       0.214471         5.8361 
 109   0.0000       0.224707         6.1146 
 110   0.0000       0.227390         6.1876 
 111   0.0000       0.230685         6.2772 
 112   0.0000       0.237154         6.4533 
 113   0.0000       0.238164         6.4808 
 114   0.0000       0.242327         6.5941 
 115   0.0000       0.250973         6.8293 
 116   0.0000       0.252190         6.8624 
 117   0.0000       0.254667         6.9298 
 118   0.0000       0.255597         6.9552 
 119   0.0000       0.266064         7.2400 
 120   0.0000       0.276660         7.5283 
 121   0.0000       0.279517         7.6061 
 122   0.0000       0.279681         7.6105 
 123   0.0000       0.285615         7.7720 
 124   0.0000       0.290484         7.9045 
 125   0.0000       0.296101         8.0573 
 126   0.0000       0.298562         8.1243 
 127   0.0000       0.298974         8.1355 
 128   0.0000       0.300001         8.1634 
 129   0.0000       0.302206         8.2235 
 130   0.0000       0.303097         8.2477 
 131   0.0000       0.304996         8.2994 
 132   0.0000       0.316902         8.6233 
 133   0.0000       0.318682         8.6718 
 134   0.0000       0.319559         8.6956 
 135   0.0000       0.320222         8.7137 
 136   0.0000       0.328467         8.9380 
 137   0.0000       0.331638         9.0243 
 138   0.0000       0.337605         9.1867 
 139   0.0000       0.337909         9.1950 
 140   0.0000       0.338142         9.2013 
 141   0.0000       0.345852         9.4111 
 142   0.0000       0.346284         9.4229 
 143   0.0000       0.347270         9.4497 
 144   0.0000       0.348192         9.4748 
 145   0.0000       0.352832         9.6010 
 146   0.0000       0.360273         9.8035 
 147   0.0000       0.364193         9.9102 
 148   0.0000       0.367932        10.0119 
 149   0.0000       0.372017        10.1231 
 150   0.0000       0.373307        10.1582 
 151   0.0000       0.373815        10.1720 
 152   0.0000       0.374718        10.1966 
 153   0.0000       0.381124        10.3709 
 154   0.0000       0.382077        10.3968 
 155   0.0000       0.382948        10.4205 
 156   0.0000       0.384928        10.4744 
 157   0.0000       0.387826        10.5533 
 158   0.0000       0.390182        10.6174 
 159   0.0000       0.396819        10.7980 
 160   0.0000       0.398891        10.8544 
 161   0.0000       0.404011        10.9937 
 162   0.0000       0.405504        11.0343 
 163   0.0000       0.411499        11.1975 
 164   0.0000       0.412659        11.2290 
 165   0.0000       0.414128        11.2690 
 166   0.0000       0.423229        11.5166 
 167   0.0000       0.429080        11.6759 
 168   0.0000       0.431124        11.7315 
 169   0.0000       0.431922        11.7532 
 170   0.0000       0.441998        12.0274 
 171   0.0000       0.445301        12.1173 
 172   0.0000       0.448667        12.2089 
 173   0.0000       0.451851        12.2955 
 174   0.0000       0.454652        12.3717 
 175   0.0000       0.456248        12.4151 
 176   0.0000       0.456449        12.4206 
 177   0.0000       0.459175        12.4948 
 178   0.0000       0.465117        12.6565 
 179   0.0000       0.471146        12.8205 
 180   0.0000       0.479339        13.0435 
 181   0.0000       0.479766        13.0551 
 182   0.0000       0.480424        13.0730 
 183   0.0000       0.481006        13.0888 
 184   0.0000       0.485307        13.2059 
 185   0.0000       0.487456        13.2644 
 186   0.0000       0.488423        13.2907 
 187   0.0000       0.492413        13.3992 
 188   0.0000       0.506055        13.7705 
 189   0.0000       0.509977        13.8772 
 190   0.0000       0.510527        13.8921 
 191   0.0000       0.511892        13.9293 
 192   0.0000       0.521802        14.1990 
 193   0.0000       0.524219        14.2647 
 194   0.0000       0.527666        14.3585 
 195   0.0000       0.533804        14.5255 
 196   0.0000       0.539365        14.6769 
 197   0.0000       0.541004        14.7215 
 198   0.0000       0.543705        14.7950 
 199   0.0000       0.547321        14.8934 
 200   0.0000       0.549311        14.9475 
 201   0.0000       0.549776        14.9602 
 202   0.0000       0.562664        15.3109 
 203   0.0000       0.564111        15.3503 
 204   0.0000       0.566178        15.4065 
 205   0.0000       0.568739        15.4762 
 206   0.0000       0.576397        15.6846 
 207   0.0000       0.577472        15.7138 
 208   0.0000       0.580440        15.7946 
 209   0.0000       0.580651        15.8003 
 210   0.0000       0.582652        15.8548 
 211   0.0000       0.588908        16.0250 
 212   0.0000       0.596072        16.2199 
 213   0.0000       0.606706        16.5093 
 214   0.0000       0.613322        16.6893 
 215   0.0000       0.619608        16.8604 
 216   0.0000       0.627352        17.0711 
 217   0.0000       0.631306        17.1787 
 218   0.0000       0.631367        17.1804 
 219   0.0000       0.634996        17.2791 
 220   0.0000       0.640216        17.4212 
 221   0.0000       0.655131        17.8270 
 222   0.0000       0.657551        17.8929 
 223   0.0000       0.663961        18.0673 
 224   0.0000       0.666899        18.1472 
 225   0.0000       0.669695        18.2233 
 226   0.0000       0.670400        18.2425 
 227   0.0000       0.676147        18.3989 
 228   0.0000       0.682895        18.5825 
 229   0.0000       0.688074        18.7235 
 230   0.0000       0.689112        18.7517 
 231   0.0000       0.695498        18.9255 
 232   0.0000       0.697444        18.9784 
 233   0.0000       0.704864        19.1803 
 234   0.0000       0.712922        19.3996 
 235   0.0000       0.713323        19.4105 
 236   0.0000       0.723124        19.6772 
 237   0.0000       0.732065        19.9205 
 238   0.0000       0.734619        19.9900 
 239   0.0000       0.736020        20.0281 
 240   0.0000       0.737433        20.0666 
 241   0.0000       0.741097        20.1663 
 242   0.0000       0.748049        20.3554 
 243   0.0000       0.751408        20.4468 
 244   0.0000       0.752281        20.4706 
 245   0.0000       0.759837        20.6762 
 246   0.0000       0.767152        20.8753 
 247   0.0000       0.768502        20.9120 
 248   0.0000       0.775473        21.1017 
 249   0.0000       0.775866        21.1124 
 250   0.0000       0.782265        21.2865 
 251   0.0000       0.786976        21.4147 
 252   0.0000       0.790945        21.5227 
 253   0.0000       0.796153        21.6644 
 254   0.0000       0.799299        21.7500 
 255   0.0000       0.801625        21.8133 
 256   0.0000       0.803133        21.8544 
 257   0.0000       0.804065        21.8797 
 258   0.0000       0.806691        21.9512 
 259   0.0000       0.808686        22.0055 
 260   0.0000       0.817780        22.2529 
 261   0.0000       0.827860        22.5272 
 262   0.0000       0.830362        22.5953 
 263   0.0000       0.833912        22.6919 
 264   0.0000       0.836585        22.7646 
 265   0.0000       0.838027        22.8039 
 266   0.0000       0.842649        22.9296 
 267   0.0000       0.851799        23.1786 
 268   0.0000       0.854238        23.2450 
 269   0.0000       0.856986        23.3198 
 270   0.0000       0.860746        23.4221 
 271   0.0000       0.871778        23.7223 
 272   0.0000       0.873523        23.7698 
 273   0.0000       0.876325        23.8460 
 274   0.0000       0.882738        24.0205 
 275   0.0000       0.884700        24.0739 
 276   0.0000       0.888035        24.1647 
 277   0.0000       0.896551        24.3964 
 278   0.0000       0.902122        24.5480 
 279   0.0000       0.902306        24.5530 
 280   0.0000       0.906146        24.6575 
 281   0.0000       0.910584        24.7782 
 282   0.0000       0.913176        24.8488 
 283   0.0000       0.918668        24.9982 
 284   0.0000       0.926668        25.2159 
 285   0.0000       0.930031        25.3074 
 286   0.0000       0.936039        25.4709 
 287   0.0000       0.944574        25.7032 
 288   0.0000       0.945323        25.7235 
 289   0.0000       0.946804        25.7638 
 290   0.0000       0.957705        26.0605 
 291   0.0000       0.972930        26.4748 
 292   0.0000       0.977095        26.5881 
 293   0.0000       0.984262        26.7831 
 294   0.0000       0.985708        26.8225 
 295   0.0000       0.987214        26.8635 
 296   0.0000       1.012113        27.5410 
 297   0.0000       1.012248        27.5447 
 298   0.0000       1.013404        27.5761 
 299   0.0000       1.034239        28.1431 
 300   0.0000       1.036911        28.2158 
 301   0.0000       1.047884        28.5144 
 302   0.0000       1.049740        28.5649 
 303   0.0000       1.053491        28.6669 
 304   0.0000       1.067382        29.0449 
 305   0.0000       1.068278        29.0693 
 306   0.0000       1.082355        29.4524 
 307   0.0000       1.083147        29.4739 
 308   0.0000       1.086916        29.5765 
 309   0.0000       1.090301        29.6686 
 310   0.0000       1.098044        29.8793 
 311   0.0000       1.101668        29.9779 
 312   0.0000       1.129584        30.7375 
 313   0.0000       1.129940        30.7472 
 314   0.0000       1.142550        31.0904 
 315   0.0000       1.144756        31.1504 
 316   0.0000       1.145487        31.1703 
 317   0.0000       1.159923        31.5631 
 318   0.0000       1.178149        32.0591 
 319   0.0000       1.183962        32.2172 
 320   0.0000       1.191540        32.4234 
 321   0.0000       1.199669        32.6446 
 322   0.0000       1.202709        32.7274 
 323   0.0000       1.203910        32.7601 
 324   0.0000       1.217066        33.1180 
 325   0.0000       1.217368        33.1263 
 326   0.0000       1.226414        33.3724 
 327   0.0000       1.227693        33.4072 
 328   0.0000       1.235681        33.6246 
 329   0.0000       1.258906        34.2566 
 330   0.0000       1.261184        34.3186 
 331   0.0000       1.262924        34.3659 
 332   0.0000       1.271498        34.5992 
 333   0.0000       1.278348        34.7856 
 334   0.0000       1.281276        34.8653 
 335   0.0000       1.296244        35.2726 
 336   0.0000       1.307936        35.5908 
 337   0.0000       1.308412        35.6037 
 338   0.0000       1.334231        36.3063 
 339   0.0000       1.344401        36.5830 
 340   0.0000       1.344915        36.5970 
 341   0.0000       1.351753        36.7831 
 342   0.0000       1.356155        36.9029 
 343   0.0000       1.362874        37.0857 
 344   0.0000       1.366070        37.1727 
 345   0.0000       1.370321        37.2883 
 346   0.0000       1.375059        37.4173 
 347   0.0000       1.385356        37.6975 
 348   0.0000       1.388618        37.7862 
 349   0.0000       1.389420        37.8081 
 350   0.0000       1.397746        38.0346 
 351   0.0000       1.423123        38.7252 
 352   0.0000       1.429391        38.8957 
 353   0.0000       1.445311        39.3289 
 354   0.0000       1.446720        39.3672 
 355   0.0000       1.450474        39.4694 
 356   0.0000       1.454416        39.5767 
 357   0.0000       1.455644        39.6101 
 358   0.0000       1.469321        39.9823 
 359   0.0000       1.477942        40.2169 
 360   0.0000       1.479531        40.2601 
 361   0.0000       1.480397        40.2837 
 362   0.0000       1.483286        40.3623 
 363   0.0000       1.489534        40.5323 
 364   0.0000       1.496075        40.7103 
 365   0.0000       1.501705        40.8635 
 366   0.0000       1.512650        41.1613 
 367   0.0000       1.537270        41.8312 
 368   0.0000       1.542301        41.9682 
 369   0.0000       1.542939        41.9855 
 370   0.0000       1.543870        42.0108 
 371   0.0000       1.549691        42.1692 
 372   0.0000       1.557054        42.3696 
 373   0.0000       1.564542        42.5734 
 374   0.0000       1.572342        42.7856 
 375   0.0000       1.572646        42.7939 
 376   0.0000       1.575058        42.8595 
 377   0.0000       1.583186        43.0807 
 378   0.0000       1.583758        43.0962 
 379   0.0000       1.591850        43.3165 
 380   0.0000       1.602539        43.6073 
 381   0.0000       1.616590        43.9897 
 382   0.0000       1.632136        44.4127 
 383   0.0000       1.644350        44.7450 
 384   0.0000       1.648586        44.8603 
 385   0.0000       1.661857        45.2214 
 386   0.0000       1.669477        45.4288 
 387   0.0000       1.680679        45.7336 
 388   0.0000       1.693405        46.0799 
 389   0.0000       1.722217        46.8639 
 390   0.0000       1.725870        46.9633 
 391   0.0000       1.728786        47.0427 
 392   0.0000       1.730672        47.0940 
 393   0.0000       1.748279        47.5731 
 394   0.0000       1.757989        47.8373 
 395   0.0000       1.767942        48.1082 
 396   0.0000       1.769514        48.1509 
 397   0.0000       1.774840        48.2958 
 398   0.0000       1.784414        48.5564 
 399   0.0000       1.784566        48.5605 
 400   0.0000       1.786196        48.6049 
 401   0.0000       1.787773        48.6478 
 402   0.0000       1.796143        48.8755 
 403   0.0000       1.803702        49.0812 
 404   0.0000       1.805699        49.1356 
 405   0.0000       1.811125        49.2832 
 406   0.0000       1.821062        49.5536 
 407   0.0000       1.827373        49.7253 
 408   0.0000       1.829759        49.7903 
 409   0.0000       1.838487        50.0278 
 410   0.0000       1.841152        50.1003 
 411   0.0000       1.848844        50.3096 
 412   0.0000       1.859435        50.5978 
 413   0.0000       1.890056        51.4310 
 414   0.0000       1.907293        51.9001 
 415   0.0000       1.938929        52.7610 
 416   0.0000       1.949048        53.0363 
 417   0.0000       1.960075        53.3363 
 418   0.0000       1.984473        54.0003 
 419   0.0000       1.989786        54.1448 
 420   0.0000       1.993040        54.2334 
 421   0.0000       1.997441        54.3531 
 422   0.0000       2.013476        54.7895 
 423   0.0000       2.016242        54.8647 
 424   0.0000       2.035438        55.3871 
 425   0.0000       2.037960        55.4557 
 426   0.0000       2.039684        55.5026 
 427   0.0000       2.042880        55.5896 
 428   0.0000       2.046716        55.6940 
 429   0.0000       2.058447        56.0132 
 430   0.0000       2.061412        56.0939 
 431   0.0000       2.061863        56.1061 
 432   0.0000       2.067124        56.2493 
 433   0.0000       2.073682        56.4278 
 434   0.0000       2.075981        56.4903 
 435   0.0000       2.096791        57.0566 
 436   0.0000       2.111049        57.4446 
 437   0.0000       2.113536        57.5122 
 438   0.0000       2.120045        57.6894 
 439   0.0000       2.134576        58.0848 
 440   0.0000       2.142242        58.2934 
 441   0.0000       2.162072        58.8330 
 442   0.0000       2.177737        59.2592 
 443   0.0000       2.205007        60.0013 
 444   0.0000       2.215183        60.2782 
 445   0.0000       2.255060        61.3633 
 446   0.0000       2.263723        61.5990 
 447   0.0000       2.267194        61.6935 
 448   0.0000       2.278331        61.9965 
 449   0.0000       2.283480        62.1367 
 450   0.0000       2.305600        62.7386 
 451   0.0000       2.308278        62.8114 
 452   0.0000       2.320798        63.1521 
 453   0.0000       2.325725        63.2862 
 454   0.0000       2.367553        64.4244 
 455   0.0000       2.370588        64.5070 
 456   0.0000       2.377844        64.7044 
 457   0.0000       2.379663        64.7539 
 458   0.0000       2.389323        65.0168 
 459   0.0000       2.414222        65.6943 
 460   0.0000       2.425410        65.9988 
 461   0.0000       2.453259        66.7566 
 462   0.0000       2.458065        66.8874 
 463   0.0000       2.460751        66.9604 
 464   0.0000       2.480244        67.4909 
 465   0.0000       2.483788        67.5873 
 466   0.0000       2.509222        68.2794 
 467   0.0000       2.510074        68.3026 
 468   0.0000       2.518215        68.5241 
 469   0.0000       2.527375        68.7734 
 470   0.0000       2.527477        68.7762 
 471   0.0000       2.547850        69.3305 
 472   0.0000       2.575901        70.0938 
 473   0.0000       2.577301        70.1319 
 474   0.0000       2.582887        70.2839 
 475   0.0000       2.591932        70.5301 
 476   0.0000       2.612962        71.1023 
 477   0.0000       2.621430        71.3327 
 478   0.0000       2.637775        71.7775 
 479   0.0000       2.700139        73.4745 
 480   0.0000       2.725699        74.1700 
 481   0.0000       2.736018        74.4508 
 482   0.0000       2.744850        74.6912 
 483   0.0000       2.763053        75.1865 
 484   0.0000       2.789351        75.9021 
 485   0.0000       2.789539        75.9072 
 486   0.0000       2.797261        76.1173 
 487   0.0000       2.838153        77.2301 
 488   0.0000       2.850821        77.5748 
 489   0.0000       2.857258        77.7499 
 490   0.0000       2.936702        79.9117 
 491   0.0000       2.959875        80.5423 
 492   0.0000       2.967458        80.7486 
 493   0.0000       2.968100        80.7661 
 494   0.0000       2.977540        81.0230 
 495   0.0000       2.978873        81.0593 
 496   0.0000       2.984386        81.2093 
 497   0.0000       2.987919        81.3054 
 498   0.0000       2.997329        81.5615 
 499   0.0000       3.005051        81.7716 
 500   0.0000       3.021186        82.2106 
 501   0.0000       3.034188        82.5645 
 502   0.0000       3.035817        82.6088 
 503   0.0000       3.046031        82.8867 
 504   0.0000       3.047330        82.9221 
 505   0.0000       3.058689        83.2312 
 506   0.0000       3.080455        83.8235 
 507   0.0000       3.082110        83.8685 
 508   0.0000       3.082602        83.8819 
 509   0.0000       3.086831        83.9969 
 510   0.0000       3.088692        84.0476 
 511   0.0000       3.093174        84.1695 
 512   0.0000       3.099283        84.3358 
 513   0.0000       3.103092        84.4394 
 514   0.0000       3.121571        84.9423 
 515   0.0000       3.126739        85.0829 
 516   0.0000       3.128572        85.1328 
 517   0.0000       3.140288        85.4516 
 518   0.0000       3.154937        85.8502 
 519   0.0000       3.155929        85.8772 
 520   0.0000       3.163641        86.0871 
 521   0.0000       3.188828        86.7724 
 522   0.0000       3.192659        86.8767 
 523   0.0000       3.199613        87.0659 
 524   0.0000       3.203373        87.1682 
 525   0.0000       3.211996        87.4029 
 526   0.0000       3.226247        87.7907 
 527   0.0000       3.233082        87.9766 
 528   0.0000       3.236847        88.0791 
 529   0.0000       3.240390        88.1755 
 530   0.0000       3.242544        88.2341 
 531   0.0000       3.249472        88.4226 
 532   0.0000       3.264632        88.8351 
 533   0.0000       3.280201        89.2588 
 534   0.0000       3.284343        89.3715 
 535   0.0000       3.286771        89.4376 
 536   0.0000       3.291626        89.5697 
 537   0.0000       3.297807        89.7379 
 538   0.0000       3.299006        89.7705 
 539   0.0000       3.307583        90.0039 
 540   0.0000       3.308840        90.0381 
 541   0.0000       3.324139        90.4544 
 542   0.0000       3.333230        90.7018 
 543   0.0000       3.379370        91.9573 
 544   0.0000       3.390014        92.2470 
 545   0.0000       3.393588        92.3442 
 546   0.0000       3.398981        92.4910 
 547   0.0000       3.403615        92.6171 
 548   0.0000       3.414338        92.9089 
 549   0.0000       3.416143        92.9580 
 550   0.0000       3.417962        93.0075 
 551   0.0000       3.423581        93.1604 
 552   0.0000       3.423803        93.1664 
 553   0.0000       3.432772        93.4105 
 554   0.0000       3.438077        93.5548 
 555   0.0000       3.463599        94.2493 
 556   0.0000       3.470379        94.4338 
 557   0.0000       3.476828        94.6093 
 558   0.0000       3.486421        94.8703 
 559   0.0000       3.500183        95.2448 
 560   0.0000       3.502347        95.3037 
 561   0.0000       3.525996        95.9472 
 562   0.0000       3.529064        96.0307 
 563   0.0000       3.532186        96.1157 
 564   0.0000       3.533289        96.1457 
 565   0.0000       3.537276        96.2542 
 566   0.0000       3.557159        96.7952 
 567   0.0000       3.560198        96.8779 
 568   0.0000       3.571653        97.1896 
 569   0.0000       3.598832        97.9292 
 570   0.0000       3.600043        97.9622 
 571   0.0000       3.612224        98.2936 
 572   0.0000       3.614813        98.3641 
 573   0.0000       3.615585        98.3851 
 574   0.0000       3.627736        98.7157 
 575   0.0000       3.660079        99.5958 
 576   0.0000       3.667952        99.8100 
 577   0.0000       3.677765       100.0771 
 578   0.0000       3.679655       100.1285 
 579   0.0000       3.682620       100.2092 
 580   0.0000       3.698486       100.6409 
 581   0.0000       3.704593       100.8071 
 582   0.0000       3.706642       100.8629 
 583   0.0000       3.712127       101.0121 
 584   0.0000       3.714299       101.0712 
 585   0.0000       3.719336       101.2083 
 586   0.0000       3.741935       101.8232 
 587   0.0000       3.748985       102.0151 
 588   0.0000       3.752072       102.0991 
 589   0.0000       3.752206       102.1027 
 590   0.0000       3.752874       102.1209 
 591   0.0000       3.760628       102.3319 
 592   0.0000       3.770252       102.5938 
 593   0.0000       3.774039       102.6968 
 594   0.0000       3.774514       102.7098 
 595   0.0000       3.775150       102.7270 
 596   0.0000       3.780757       102.8796 
 597   0.0000       3.783386       102.9512 
 598   0.0000       3.789789       103.1254 
 599   0.0000       3.799446       103.3882 
 600   0.0000       3.813024       103.7577 
 601   0.0000       3.819975       103.9468 
 602   0.0000       3.834993       104.3555 
 603   0.0000       3.837523       104.4243 
 604   0.0000       3.838375       104.4475 
 605   0.0000       3.857321       104.9630 
 606   0.0000       3.873260       105.3968 
 607   0.0000       3.889961       105.8512 
 608   0.0000       3.891099       105.8822 
 609   0.0000       3.891739       105.8996 
 610   0.0000       3.894004       105.9612 
 611   0.0000       3.894145       105.9651 
 612   0.0000       3.915169       106.5372 
 613   0.0000       3.927162       106.8635 
 614   0.0000       3.932454       107.0075 
 615   0.0000       3.942422       107.2788 
 616   0.0000       3.952932       107.5647 
 617   0.0000       3.964330       107.8749 
 618   0.0000       3.967350       107.9571 
 619   0.0000       3.994473       108.6951 
 620   0.0000       4.005143       108.9855 
 621   0.0000       4.013967       109.2256 
 622   0.0000       4.016137       109.2846 
 623   0.0000       4.029121       109.6379 
 624   0.0000       4.031516       109.7031 
 625   0.0000       4.049470       110.1917 
 626   0.0000       4.056332       110.3784 
 627   0.0000       4.106441       111.7419 
 628   0.0000       4.133979       112.4913 
 629   0.0000       4.136578       112.5620 
 630   0.0000       4.148509       112.8867 
 631   0.0000       4.156594       113.1067 
 632   0.0000       4.176529       113.6491 
 633   0.0000       4.179019       113.7169 
 634   0.0000       4.180618       113.7604 
 635   0.0000       4.182292       113.8059 
 636   0.0000       4.186630       113.9240 
 637   0.0000       4.216982       114.7499 
 638   0.0000       4.220635       114.8493 
 639   0.0000       4.224829       114.9634 
 640   0.0000       4.238446       115.3340 
 641   0.0000       4.241685       115.4221 
 642   0.0000       4.243261       115.4650 
 643   0.0000       4.249702       115.6403 
 644   0.0000       4.279102       116.4403 
 645   0.0000       4.287792       116.6768 
 646   0.0000       4.319716       117.5455 
 647   0.0000       4.323996       117.6619 
 648   0.0000       4.344422       118.2177 
 649   0.0000       4.346813       118.2828 
 650   0.0000       4.352092       118.4264 
 651   0.0000       4.357673       118.5783 
 652   0.0000       4.378946       119.1572 
 653   0.0000       4.379203       119.1642 
 654   0.0000       4.402178       119.7893 
 655   0.0000       4.404430       119.8506 
 656   0.0000       4.410670       120.0204 
 657   0.0000       4.423577       120.3717 
 658   0.0000       4.432721       120.6205 
 659   0.0000       4.437816       120.7591 
 660   0.0000       4.440732       120.8385 
 661   0.0000       4.444032       120.9283 
 662   0.0000       4.474164       121.7482 
 663   0.0000       4.475233       121.7773 
 664   0.0000       4.497069       122.3715 
 665   0.0000       4.535510       123.4175 
 666   0.0000       4.542051       123.5955 
 667   0.0000       4.543781       123.6426 
 668   0.0000       4.545829       123.6983 
 669   0.0000       4.553507       123.9072 
 670   0.0000       4.555947       123.9736 
 671   0.0000       4.557655       124.0201 
 672   0.0000       4.569695       124.3477 
 673   0.0000       4.570790       124.3775 
 674   0.0000       4.584059       124.7386 
 675   0.0000       4.588393       124.8565 
 676   0.0000       4.605538       125.3231 
 677   0.0000       4.614781       125.5746 
 678   0.0000       4.616982       125.6345 
 679   0.0000       4.618305       125.6705 
 680   0.0000       4.630481       126.0018 
 681   0.0000       4.637663       126.1972 
 682   0.0000       4.665863       126.9646 
 683   0.0000       4.678285       127.3026 
 684   0.0000       4.678393       127.3056 
 685   0.0000       4.761001       129.5534 
 686   0.0000       4.823767       131.2614 
 687   0.0000       4.827134       131.3530 
 688   0.0000       4.841153       131.7345 
 689   0.0000       4.842382       131.7679 
 690   0.0000       4.851614       132.0191 
 691   0.0000       4.852554       132.0447 
 692   0.0000       4.859299       132.2282 
 693   0.0000       4.860798       132.2690 
 694   0.0000       4.866758       132.4312 
 695   0.0000       4.869373       132.5024 
 696   0.0000       4.872762       132.5946 
 697   0.0000       4.875924       132.6806 
 698   0.0000       4.898946       133.3071 
 699   0.0000       4.902603       133.4066 
 700   0.0000       4.957333       134.8959 
 701   0.0000       4.957565       134.9022 
 702   0.0000       4.971690       135.2866 
 703   0.0000       4.973169       135.3268 
 704   0.0000       5.307941       144.4364 
 705   0.0000       5.310482       144.5056 
 706   0.0000       5.330130       145.0402 
 707   0.0000       5.331094       145.0664 
 708   0.0000       5.336554       145.2150 
 709   0.0000       5.338501       145.2680 
 710   0.0000       5.339999       145.3087 
 711   0.0000       5.343424       145.4020 
 712   0.0000       5.346948       145.4979 
 713   0.0000       5.350225       145.5870 
 714   0.0000       5.366017       146.0167 
 715   0.0000       5.366158       146.0206 
 716   0.0000       5.371303       146.1606 
 717   0.0000       5.373327       146.2157 
 718   0.0000       5.378321       146.3515 
 719   0.0000       5.379267       146.3773 
 720   0.0000       5.387673       146.6060 
 721   0.0000       5.388696       146.6339 
 722   0.0000       5.407635       147.1492 
 723   0.0000       5.413446       147.3074 
 724   0.0000       5.420105       147.4885 
 725   0.0000       5.444998       148.1659 
 726   0.0000       5.454350       148.4204 
 727   0.0000       5.469647       148.8367 
 728   0.0000       5.470087       148.8486 
 729   0.0000       5.475581       148.9981 
 730   0.0000       5.475706       149.0015 
 731   0.0000       5.505549       149.8136 
 732   0.0000       5.520394       150.2176 
 733   0.0000       5.562007       151.3499 
 734   0.0000       5.565330       151.4403 
 735   0.0000       5.566226       151.4647 
 736   0.0000       5.568055       151.5145 
 737   0.0000       5.575422       151.7149 
 738   0.0000       5.580793       151.8611 
 739   0.0000       5.581058       151.8683 
 740   0.0000       5.582042       151.8951 
 741   0.0000       5.588863       152.0807 
 742   0.0000       5.594912       152.2453 
 743   0.0000       5.697779       155.0445 
 744   0.0000       5.700275       155.1124 
 745   0.0000       5.700401       155.1158 
 746   0.0000       5.701299       155.1402 
 747   0.0000       5.738251       156.1457 
 748   0.0000       5.740593       156.2095 
 749   0.0000       5.817276       158.2961 
 750   0.0000       5.825072       158.5083 
 751   0.0000       5.867278       159.6568 
 752   0.0000       5.871849       159.7811 
 753   0.0000       5.886217       160.1721 
 754   0.0000       5.893453       160.3690 
 755   0.0000       5.903101       160.6315 
 756   0.0000       5.903734       160.6488 
 757   0.0000       5.937615       161.5707 
 758   0.0000       5.949585       161.8964 
 759   0.0000       5.985427       162.8717 
 760   0.0000       5.987594       162.9307 
 761   0.0000       5.991329       163.0324 
 762   0.0000       5.993008       163.0780 
 763   0.0000       6.294749       171.2888 
 764   0.0000       6.303755       171.5339 
 765   0.0000       6.307024       171.6228 
 766   0.0000       6.327945       172.1921 
 767   0.0000       6.471836       176.1076 
 768   0.0000       6.490575       176.6175 
 769   0.0000       6.730299       183.1408 
 770   0.0000       6.732209       183.1927 
 771   0.0000       6.738704       183.3695 
 772   0.0000       6.741293       183.4399 
 773   0.0000       6.750958       183.7029 
 774   0.0000       6.808808       185.2771 
 775   0.0000       6.817691       185.5188 
 776   0.0000       6.827515       185.7861 
 777   0.0000       6.895946       187.6482 
 778   0.0000       7.174196       195.2198 
 779   0.0000       7.256768       197.4667 
 780   0.0000       7.572912       206.0694 
 781   0.0000       8.332207       226.7309 
 782   0.0000       8.389950       228.3021 
 783   0.0000       8.410049       228.8491 
 784   0.0000       8.437868       229.6061 
 785   0.0000       8.463043       230.2911 
 786   0.0000       8.479614       230.7420 
 787   0.0000       8.675385       236.0692 
 788   0.0000       8.705935       236.9005 
 789   0.0000       8.746874       238.0145 
 790   0.0000       8.774421       238.7641 
 791   0.0000       8.866866       241.2797 
 792   0.0000      11.476148       312.2819 
 793   0.0000      11.696933       318.2897 
 794   0.0000      11.697447       318.3037 
 795   0.0000      16.108407       438.3320 
 796   0.0000      16.186023       440.4441 
 797   0.0000      23.884621       649.9336 
 798   0.0000      24.345621       662.4780 
 799   0.0000      24.355529       662.7476 
 800   0.0000      24.357161       662.7920 
 801   0.0000      24.372149       663.1999 
 802   0.0000      24.514518       667.0740 
 803   0.0000      24.522198       667.2829 
 804   0.0000      26.793364       729.0845 
 805   0.0000      33.567278       913.4121 
 806   0.0000      41.040071      1116.7571 
 807   0.0000      43.914565      1194.9761 
 808   0.0000      45.509643      1238.3804 
 809   0.0000      59.432897      1617.2513 
 810   0.0000     361.941678      9848.9338 

                    ********************************
                    * MULLIKEN POPULATION ANALYSIS *
                    ********************************

-----------------------
MULLIKEN ATOMIC CHARGES
-----------------------
   0 Ir:    0.075974
   1 P :    0.724711
   2 C :   -0.350030
   3 C :   -0.368314
   4 H :    0.123059
   5 H :    0.123077
   6 H :    0.104838
   7 H :    0.104687
   8 H :    0.072572
   9 H :    0.048669
  10 C :   -0.368434
  11 H :    0.110894
  12 H :    0.048469
  13 H :    0.072513
  14 P :    0.724517
  15 C :   -0.350185
  16 C :   -0.368515
  17 H :    0.104647
  18 H :    0.123046
  19 H :    0.048653
  20 C :   -0.367917
  21 H :    0.104893
  22 H :    0.123019
  23 H :    0.110905
  24 H :    0.072478
  25 H :    0.048434
  26 H :    0.072580
  27 C :    0.327271
  28 O :   -0.544178
  29 Cl:   -0.752335
Sum of atomic charges:   -0.0000000

--------------------------------
MULLIKEN REDUCED ORBITAL CHARGES
--------------------------------
  0 Irs       :     3.027779  s :     3.027779
      pz      :     1.987561  p :     6.202225
      px      :     2.121354
      py      :     2.093310
      dz2     :     1.752488  d :     7.628463
      dxz     :     1.863198
      dyz     :     1.624761
      dx2y2   :     0.734361
      dxy     :     1.653654
      f0      :     0.003713  f :     0.062871
      f+1     :     0.007011
      f-1     :     0.010875
      f+2     :     0.005552
      f-2     :     0.000134
      f+3     :     0.016704
      f-3     :     0.018882
      g0      :     0.000380  g :     0.002688
      g+1     :     0.000241
      g-1     :     0.000461
      g+2     :     0.000611
      g-2     :     0.000184
      g+3     :     0.000012
      g-3     :     0.000112
      g+4     :     0.000503
      g-4     :     0.000183
  1 P s       :     5.475023  s :     5.475023
      pz      :     2.699761  p :     8.447768
      px      :     3.038366
      py      :     2.709641
      dz2     :     0.034536  d :     0.309418
      dxz     :     0.115902
      dyz     :     0.107240
      dx2y2   :    -0.014703
      dxy     :     0.066444
      f0      :     0.006603  f :     0.043079
      f+1     :     0.005892
      f-1     :     0.004840
      f+2     :     0.006678
      f-2     :     0.007090
      f+3     :     0.005432
      f-3     :     0.006544
  2 C s       :     2.929423  s :     2.929423
      pz      :     1.171669  p :     3.325939
      px      :     1.093119
      py      :     1.061151
      dz2     :     0.029517  d :     0.092019
      dxz     :     0.019282
      dyz     :     0.018547
      dx2y2   :     0.024970
      dxy     :    -0.000297
      f0      :     0.000104  f :     0.002649
      f+1     :     0.000378
      f-1     :     0.000780
      f+2     :     0.000233
      f-2     :     0.000144
      f+3     :     0.000671
      f-3     :     0.000339
  3 C s       :     2.944666  s :     2.944666
      pz      :     1.065457  p :     3.329655
      px      :     1.129770
      py      :     1.134428
      dz2     :     0.018546  d :     0.091327
      dxz     :     0.004278
      dyz     :     0.020889
      dx2y2   :     0.036974
      dxy     :     0.010641
      f0      :     0.000310  f :     0.002666
      f+1     :     0.000368
      f-1     :     0.000753
      f+2     :     0.000241
      f-2     :     0.000269
      f+3     :     0.000598
      f-3     :     0.000127
  4 H s       :     0.824824  s :     0.824824
      pz      :     0.004031  p :     0.050057
      px      :     0.030827
      py      :     0.015198
      dz2     :     0.000140  d :     0.002060
      dxz     :     0.000762
      dyz     :     0.000034
      dx2y2   :     0.000394
      dxy     :     0.000731
  5 H s       :     0.824857  s :     0.824857
      pz      :     0.003983  p :     0.050005
      px      :     0.030815
      py      :     0.015207
      dz2     :     0.000140  d :     0.002060
      dxz     :     0.000761
      dyz     :     0.000034
      dx2y2   :     0.000394
      dxy     :     0.000731
  6 H s       :     0.848968  s :     0.848968
      pz      :     0.007358  p :     0.044111
      px      :     0.006359
      py      :     0.030393
      dz2     :     0.000132  d :     0.002083
      dxz     :     0.000119
      dyz     :     0.000679
      dx2y2   :     0.000630
      dxy     :     0.000522
  7 H s       :     0.849065  s :     0.849065
      pz      :     0.007468  p :     0.044166
      px      :     0.006285
      py      :     0.030413
      dz2     :     0.000132  d :     0.002083
      dxz     :     0.000119
      dyz     :     0.000678
      dx2y2   :     0.000631
      dxy     :     0.000522
  8 H s       :     0.875642  s :     0.875642
      pz      :     0.025717  p :     0.049710
      px      :     0.006600
      py      :     0.017393
      dz2     :     0.000659  d :     0.002076
      dxz     :     0.000466
      dyz     :     0.000438
      dx2y2   :     0.000276
      dxy     :     0.000238
  9 H s       :     0.888633  s :     0.888633
      pz      :     0.032691  p :     0.060617
      px      :     0.018683
      py      :     0.009243
      dz2     :     0.000680  d :     0.002081
      dxz     :     0.000494
      dyz     :     0.000488
      dx2y2   :     0.000230
      dxy     :     0.000189
 10 C s       :     2.944698  s :     2.944698
      pz      :     1.065945  p :     3.329613
      px      :     1.129293
      py      :     1.134375
      dz2     :     0.018582  d :     0.091458
      dxz     :     0.004285
      dyz     :     0.020865
      dx2y2   :     0.037037
      dxy     :     0.010689
      f0      :     0.000311  f :     0.002665
      f+1     :     0.000366
      f-1     :     0.000752
      f+2     :     0.000242
      f-2     :     0.000269
      f+3     :     0.000597
      f-3     :     0.000129
 11 H s       :     0.839489  s :     0.839489
[...]
      py      :     2.665500
      dz2     :     0.246057  d :     1.231911
      dxz     :     0.212173
      dyz     :     0.245228
      dx2y2   :     0.236973
      dxy     :     0.291480
      f0      :     0.020300  f :     0.129065
      f+1     :     0.017196
      f-1     :     0.015733
      f+2     :     0.019686
      f-2     :     0.020982
      f+3     :     0.015353
      f-3     :     0.019815
 15 C s       :     2.685336  s :     2.685336
      pz      :     0.945974  p :     2.836708
      px      :     0.949028
      py      :     0.941705
      dz2     :     0.085908  d :     0.481820
      dxz     :     0.030921
      dyz     :     0.124057
      dx2y2   :     0.134876
      dxy     :     0.106058
      f0      :     0.000544  f :     0.020694
      f+1     :     0.004140
      f-1     :     0.005007
      f+2     :     0.002494
      f-2     :     0.001991
      f+3     :     0.004389
      f-3     :     0.002129
 16 C s       :     2.687187  s :     2.687187
      pz      :     0.937835  p :     2.835202
      px      :     0.947469
      py      :     0.949898
      dz2     :     0.121611  d :     0.484785
      dxz     :     0.076283
      dyz     :     0.103748
      dx2y2   :     0.106342
      dxy     :     0.076802
      f0      :     0.001811  f :     0.020586
      f+1     :     0.003503
      f-1     :     0.004455
      f+2     :     0.001743
      f-2     :     0.003139
      f+3     :     0.004708
      f-3     :     0.001227
 17 H s       :     0.705209  s :     0.705209
      pz      :     0.090152  p :     0.345249
      px      :     0.118542
      py      :     0.136556
      dz2     :     0.002568  d :     0.030027
      dxz     :     0.001609
      dyz     :     0.008508
      dx2y2   :     0.009438
      dxy     :     0.007905
 18 H s       :     0.714569  s :     0.714569
      pz      :     0.083997  p :     0.303868
      px      :     0.138427
      py      :     0.081444
      dz2     :     0.002685  d :     0.029651
      dxz     :     0.009365
      dyz     :     0.000303
      dx2y2   :     0.007553
      dxy     :     0.009745
 19 H s       :     0.716173  s :     0.716173
      pz      :     0.125757  p :     0.305991
      px      :     0.085121
      py      :     0.095113
      dz2     :     0.010045  d :     0.029875
      dxz     :     0.006619
      dyz     :     0.007656
      dx2y2   :     0.003015
      dxy     :     0.002540
 20 C s       :     2.687224  s :     2.687224
      pz      :     0.937870  p :     2.835192
      px      :     0.947417
      py      :     0.949905
      dz2     :     0.121587  d :     0.484622
      dxz     :     0.076869
      dyz     :     0.103801
      dx2y2   :     0.106497
      dxy     :     0.075867
      f0      :     0.001789  f :     0.020585
      f+1     :     0.003536
      f-1     :     0.004451
      f+2     :     0.001716
      f-2     :     0.003161
      f+3     :     0.004725
      f-3     :     0.001207
 21 H s       :     0.705151  s :     0.705151
      pz      :     0.090162  p :     0.345919
      px      :     0.119300
      py      :     0.136457
      dz2     :     0.002567  d :     0.030028
      dxz     :     0.001640
      dyz     :     0.008474
      dx2y2   :     0.009454
      dxy     :     0.007893
 22 H s       :     0.714558  s :     0.714558
      pz      :     0.084040  p :     0.303857
      px      :     0.138320
      py      :     0.081497
      dz2     :     0.002703  d :     0.029652
      dxz     :     0.009335
      dyz     :     0.000322
      dx2y2   :     0.007551
      dxy     :     0.009742
 23 H s       :     0.714485  s :     0.714485
      pz      :     0.079147  p :     0.304360
      px      :     0.138865
      py      :     0.086348
      dz2     :     0.002610  d :     0.029701
      dxz     :     0.009014
      dyz     :     0.000493
      dx2y2   :     0.008075
      dxy     :     0.009509
 24 H s       :     0.710913  s :     0.710913
      pz      :     0.119650  p :     0.309202
      px      :     0.088200
      py      :     0.101352
      dz2     :     0.009131  d :     0.029955
      dxz     :     0.006075
      dyz     :     0.008050
      dx2y2   :     0.003587
      dxy     :     0.003112
 25 H s       :     0.716152  s :     0.716152
      pz      :     0.125985  p :     0.305932
      px      :     0.084905
      py      :     0.095041
      dz2     :     0.010065  d :     0.029875
      dxz     :     0.006654
      dyz     :     0.007686
      dx2y2   :     0.002961
      dxy     :     0.002510
 26 H s       :     0.710888  s :     0.710888
      pz      :     0.119493  p :     0.309211
      px      :     0.088194
      py      :     0.101524
      dz2     :     0.009119  d :     0.029955
      dxz     :     0.006051
      dyz     :     0.008037
      dx2y2   :     0.003612
      dxy     :     0.003135
 27 C s       :     2.966809  s :     2.966809
      pz      :     0.630844  p :     2.345661
      px      :     0.593038
      py      :     1.121780
      dz2     :     0.105809  d :     1.039195
      dxz     :     0.026600
      dyz     :     0.291052
      dx2y2   :     0.261140
      dxy     :     0.354594
      f0      :     0.011607  f :     0.100906
      f+1     :     0.001982
      f-1     :     0.015350
      f+2     :     0.018938
      f-2     :     0.001396
      f+3     :     0.029085
      f-3     :     0.022547
 28 O s       :     3.399510  s :     3.399510
      pz      :     1.416010  p :     4.401925
      px      :     1.392996
      py      :     1.592919
      dz2     :     0.027359  d :     0.204615
      dxz     :     0.000535
      dyz     :     0.049198
      dx2y2   :     0.088404
      dxy     :     0.039119
      f0      :     0.000473  f :     0.005459
      f+1     :     0.000071
      f-1     :     0.001173
      f+2     :     0.000777
      f-2     :     0.000002
      f+3     :     0.001035
      f-3     :     0.001928
 29 Cls       :     5.670246  s :     5.670246
      pz      :     3.817288  p :    11.286038
      px      :     3.789911
      py      :     3.678838
      dz2     :     0.020663  d :     0.196871
      dxz     :     0.024424
      dyz     :     0.023511
      dx2y2   :     0.053882
      dxy     :     0.074392
      f0      :     0.000352  f :     0.003605
      f+1     :     0.000110
      f-1     :     0.000577
      f+2     :     0.000612
      f-2     :     0.000097
      f+3     :     0.001287
      f-3     :     0.000570


                      *****************************
                      * MAYER POPULATION ANALYSIS *
                      *****************************

  NA   - Mulliken gross atomic population
  ZA   - Total nuclear charge
  QA   - Mulliken gross atomic charge
  VA   - Mayer's total valence
  BVA  - Mayer's bonded valence
  FA   - Mayer's free valence

  ATOM       NA         ZA         QA         VA         BVA        FA
  0 Ir    16.9240    17.0000     0.0760     4.1015     4.1015    -0.0000
  1 P     14.2753    15.0000     0.7247     3.3633     3.3633    -0.0000
  2 C      6.3500     6.0000    -0.3500     3.8994     3.8994    -0.0000
  3 C      6.3683     6.0000    -0.3683     3.9906     3.9906     0.0000
  4 H      0.8769     1.0000     0.1231     1.0640     1.0640     0.0000
  5 H      0.8769     1.0000     0.1231     1.0639     1.0639    -0.0000
  6 H      0.8952     1.0000     0.1048     1.0775     1.0775     0.0000
  7 H      0.8953     1.0000     0.1047     1.0778     1.0778     0.0000
  8 H      0.9274     1.0000     0.0726     1.0909     1.0909     0.0000
  9 H      0.9513     1.0000     0.0487     1.1243     1.1243     0.0000
 10 C      6.3684     6.0000    -0.3684     3.9909     3.9909    -0.0000
 11 H      0.8891     1.0000     0.1109     1.0612     1.0612    -0.0000
 12 H      0.9515     1.0000     0.0485     1.1243     1.1243    -0.0000
 13 H      0.9275     1.0000     0.0725     1.0910     1.0910    -0.0000
 14 P     14.2755    15.0000     0.7245     3.3629     3.3629    -0.0000
 15 C      6.3502     6.0000    -0.3502     3.8995     3.8995     0.0000
 16 C      6.3685     6.0000    -0.3685     3.9909     3.9909    -0.0000
 17 H      0.8954     1.0000     0.1046     1.0777     1.0777    -0.0000
 18 H      0.8770     1.0000     0.1230     1.0639     1.0639    -0.0000
 19 H      0.9513     1.0000     0.0487     1.1242     1.1242    -0.0000
 20 C      6.3679     6.0000    -0.3679     3.9902     3.9902    -0.0000
 21 H      0.8951     1.0000     0.1049     1.0776     1.0776     0.0000
 22 H      0.8770     1.0000     0.1230     1.0640     1.0640    -0.0000
 23 H      0.8891     1.0000     0.1109     1.0611     1.0611     0.0000
 24 H      0.9275     1.0000     0.0725     1.0909     1.0909     0.0000
 25 H      0.9516     1.0000     0.0484     1.1243     1.1243    -0.0000
 26 H      0.9274     1.0000     0.0726     1.0909     1.0909     0.0000
 27 C      5.6727     6.0000     0.3273     3.6615     3.6615     0.0000
 28 O      8.5442     8.0000    -0.5442     2.1371     2.1371    -0.0000
 29 Cl    17.7523    17.0000    -0.7523     0.5586     0.5586     0.0000

  Mayer bond orders larger than 0.100000
B(  0-Ir,  1-P ) :   0.8122 B(  0-Ir, 14-P ) :   0.8117 B(  0-Ir, 27-C ) :   1.7912 
B(  0-Ir, 28-O ) :   0.1485 B(  0-Ir, 29-Cl) :   0.3507 B(  1-P ,  2-C ) :   0.7591 
B(  1-P ,  3-C ) :   0.8496 B(  1-P , 10-C ) :   0.8500 B(  1-P , 29-Cl) :   0.1568 
B(  2-C ,  8-H ) :   1.0087 B(  2-C , 11-H ) :   1.0083 B(  2-C , 13-H ) :   1.0087 
B(  3-C ,  4-H ) :   0.9894 B(  3-C ,  6-H ) :   0.9983 B(  3-C ,  9-H ) :   1.0225 
B(  5-H , 10-C ) :   0.9895 B(  7-H , 10-C ) :   0.9983 B( 10-C , 12-H ) :   1.0225 
B( 14-P , 15-C ) :   0.7593 B( 14-P , 16-C ) :   0.8496 B( 14-P , 20-C ) :   0.8497 
B( 14-P , 29-Cl) :   0.1569 B( 15-C , 23-H ) :   1.0083 B( 15-C , 24-H ) :   1.0087 
B( 15-C , 26-H ) :   1.0086 B( 16-C , 21-H ) :   0.9984 B( 16-C , 22-H ) :   0.9895 
B( 16-C , 25-H ) :   1.0227 B( 17-H , 20-C ) :   0.9983 B( 18-H , 20-C ) :   0.9894 
B( 19-H , 20-C ) :   1.0224 B( 27-C , 28-O ) :   1.9877 

-------
TIMINGS
-------

Total SCF time: 0 days 0 hours 1 min 39 sec 

Total time                  ....      99.705 sec
Sum of individual times     ....      98.633 sec  ( 98.9%)

Fock matrix formation       ....      88.853 sec  ( 89.1%)
  XC integration            ....       8.559 sec  (  9.6% of F)
    Basis function eval.    ....       1.444 sec  ( 16.9% of XC)
    Density eval.           ....       2.749 sec  ( 32.1% of XC)
    XC-Functional eval.     ....       0.100 sec  (  1.2% of XC)
    XC-Potential eval.      ....       2.828 sec  ( 33.0% of XC)
Diagonalization             ....       4.250 sec  (  4.3%)
Density matrix formation    ....       0.161 sec  (  0.2%)
Population analysis         ....       0.131 sec  (  0.1%)
Initial guess               ....       1.741 sec  (  1.7%)
Orbital Transformation      ....       0.000 sec  (  0.0%)
Orbital Orthonormalization  ....       0.000 sec  (  0.0%)
DIIS solution               ....       2.512 sec  (  2.5%)
Grid generation             ....       0.984 sec  (  1.0%)


           ************************************************************
           *        Program running with 24 parallel MPI-processes    *
           *              working on a common directory               *
           ************************************************************

------------------------------------------------------------------------------
                                ORCA  MP2 
------------------------------------------------------------------------------

Freezing NCore=46 chemical core electrons

-------------
RI-MP2 ENERGY
-------------
Dimension of the basis                    ...  811
Memory devoted to MP2                     ... 5000 MB   
Data format for buffers                   ... DOUBLE
Compression type for matrix containers    ... UNCOMPRESSED
Scaling for aa/bb pairs                   ...   4.000e-01
Scaling for ab pairs                      ...   4.700e-01
Overall scaling of the MP2 energy         ...   1.000e+00
Calculating two index integrals           ... done (    0.030 sec)
Cholesky decomposition of V**-1           ... done (    0.737 sec)

-----------------
RI-TRANSFORMATION (AUX index driven)
-----------------

Dimension of the orbital-basis         ... 811
Dimension of the aux-basis             ... 2048
Transformation of internal/external MOs...   23-  65 to   66- 810
Number Format for Storage              ... Double (8 Byte)
Integral mode                          ... Direct

First Phase: integral generation and transformation of MO indices
  Aux angular momentum 0               ... done (    0.151 sec)
  Aux angular momentum 1               ... done (    0.279 sec)
  Aux angular momentum 2               ... done (    0.442 sec)
  Aux angular momentum 3               ... done (    0.398 sec)
  Aux angular momentum 4               ... done (    0.112 sec)
  Aux angular momentum 5               ... done (    0.141 sec)
  Aux angular momentum 6               ... done (    0.181 sec)
Closing buffer VIA ( 0.49 GB; CompressionRatio= 1.00)
  Phase 1 completed in     1.820 sec
Second Phase: sorting and transformation of aux index

IA-Transformation
Memory available                       ... 4916 MB 
Max. # MO pairs treated in a batch     ... 2    
# of internal orbitals                 ... 43
# batches for internal orbitals        ... 1
Closing buffer IAV ( 0.02 GB; CompressionRatio= 1.00)
(ia|v) transformation done in     0.367 sec

  Phase 2 completed in     1.319 sec
RI-Integral transformation completed in     3.150 sec
Opening buffers                              ... done

Starting loop over batches of integrals:

Operator 0  - window                       ... ( 23- 65)x( 66-810)
Operator 0  - Memory available             ...  5000 MB
Operator 0  - Memory needed per MO         ...  11.6 MB
Operator 0  - Number of orbitals per batch ... 2
Operator 0  - Number of batches            ... 1

OPERATOR  0   PASS   0:  MOs    23 ...   24 +   25 ...   26 +   27 ...   28 +   29 ...   30
                            +   31 ...   32 +   33 ...   34 +   35 ...   36 +   37 ...   38
                            +   39 ...   40 +   41 ...   42 +   43 ...   44 +   45 ...   46
                            +   47 ...   48 +   49 ...   50 +   51 ...   52 +   53 ...   54
                            +   55 ...   56 +   57 ...   58 +   59 ...   60 +   61 ...   62
                            +   63 ...   64 +   65 ...   65
  Reading integrals       ... ok
Time spent in pair loops =     0.185 sec
Deleting buffer (Ka|jb)[aa] ...done

-----------------------------------------------
 RI-MP2 CORRELATION ENERGY:     -1.359583958 Eh
-----------------------------------------------


-------
TIMINGS
-------

Total time                :    7.665 sec
Integral trafo            :    3.162 sec ( 41.2%)
I/O of integrals          :    0.023 sec (  0.3%)
K(i,j) Operators          :    0.104 sec (  1.4%)
T(i,j) pair energies      :    0.024 sec (  0.3%)
V-calculation             :    0.030 sec (  0.4%)
V**(-1/2)                 :    0.737 sec (  9.6%)
Gamma(ia|P)               :    0.000 sec (  0.0%)
Gamma-Trafo               :    0.000 sec (  0.0%)
D(virtual)                :    0.000 sec (  0.0%)
D(internal)               :    0.000 sec (  0.0%)
W(virtual)                :    0.000 sec (  0.0%)
W(internal)               :    0.000 sec (  0.0%)
L(virtual)                :    0.000 sec (  0.0%)
L(internal)               :    0.000 sec (  0.0%)
G(D)                      :    0.000 sec (  0.0%)
G(Z)                      :    0.000 sec (  0.0%)
Z-Vector Solution         :    0.000 sec (  0.0%)
Z-Vector Solution         :    0.000 sec (  0.0%)
3-Index Derivative 
+ Separable RIJ part      :    0.000 sec (  0.0%)
2-Index Derivative 
+ Separable RIJ part      :    0.000 sec (  0.0%)
Separable Gradient (X)    :    0.000 sec (  0.0%)


---------------------------------------
MP2 TOTAL ENERGY:    -1599.201093422 Eh
---------------------------------------


-------------------------------------------------------------------------------
                          DFT DISPERSION CORRECTION                            
                                                                               
                              DFTD3 V3.1  Rev 1                                
                          USING Becke-Johnson damping                          
-------------------------------------------------------------------------------
The DSD-BLYP/2013 functional is recognized
Active option DFTDOPT                   ...         4   

molecular C6(AA) [au] = 13771.738814 


            DFT-D V3
 parameters
 s6 scaling factor         :     0.5700 
 a1 scaling factor         :     0.0000 
 s8 scaling factor         :     0.0000 
 a2 scaling factor         :     5.4000 
 ad hoc parameters k1-k3   :    16.0000     1.3333    -4.0000 

 Edisp/kcal,au: -28.989638267023  -0.046197924291 
 E6   /kcal   : -28.989638267 
 E8   /kcal   :  -0.000000000 
 % E8         :   0.000000000 

-------------------------   ----------------
Dispersion correction           -0.046197924
-------------------------   ----------------


-------------------------   --------------------
FINAL SINGLE POINT ENERGY     -1599.247291346243
-------------------------   --------------------


                            ***************************************
                            *     ORCA property calculations      *
                            ***************************************


  WARNING: The energy has been calculated at the MP2 level but the densities
           used in the property calculations are still SCF densities
           MP2 response densities have not been calculated 
           use %mp2 Density relaxed end
           or  %mp2 Density unrelaxed end

                                    ---------------------
                                    Active property flags
                                    ---------------------
   (+) Dipole Moment


------------------------------------------------------------------------------
                       ORCA ELECTRIC PROPERTIES CALCULATION
------------------------------------------------------------------------------

Dipole Moment Calculation                       ... on
Quadrupole Moment Calculation                   ... off
Polarizability Calculation                      ... off
GBWName                                         ... MOR12_ed18.gbw
Electron density file                           ... MOR12_ed18.scfp
The origin for moment calculation is the CENTER OF MASS  = (-0.000001,  0.016343 -0.000404)

-------------
DIPOLE MOMENT
-------------
                                X             Y             Z
Electronic contribution:      0.00113      16.18049      -0.17778
Nuclear contribution   :     -0.00090     -15.69990       0.18198
                        -----------------------------------------
Total Dipole Moment    :      0.00023       0.48058       0.00420
                        -----------------------------------------
Magnitude (a.u.)       :      0.48060
Magnitude (Debye)      :      1.22160



--------------------
Rotational spectrum 
--------------------
 
Rotational constants in cm-1:     0.025294     0.012430     0.009680 
Rotational constants in MHz :   758.298673   372.651784   290.199928 

 Dipole components along the rotational axes: 
x,y,z [a.u.] :     0.000242     0.480585     0.004199 
x,y,z [Debye]:     0.000614     1.221550     0.010672 

 

Timings for individual modules:

Sum of individual times         ...      112.265 sec (=   1.871 min)
GTO integral calculation        ...        3.846 sec (=   0.064 min)   3.4 %
SCF iterations                  ...      100.118 sec (=   1.669 min)  89.2 %
MP2 module                      ...        8.301 sec (=   0.138 min)   7.4 %
                             ****ORCA TERMINATED NORMALLY****
TOTAL RUN TIME: 0 days 0 hours 1 minutes 52 seconds 873 msec
