
                                 *****************
                                 * O   R   C   A *
                                 *****************

           --- An Ab Initio, DFT and Semiempirical electronic structure package ---

                  #######################################################
                  #                        -***-                        #
                  #          Department of theory and spectroscopy      #
                  #               Directorship: Frank Neese             #
                  #        Max Planck Institute fuer Kohlenforschung    #
                  #                Kaiser Wilhelm Platz 1               #
                  #                 D-45470 Muelheim/Ruhr               #
                  #                      Germany                        #
                  #                                                     #
                  #                  All rights reserved                #
                  #                        -***-                        #
                  #######################################################


                         Program Version 4.2.0 -  RELEASE  -


 With contributions from (in alphabetic order):
   Daniel Aravena         : Magnetic Suceptibility
   Michael Atanasov       : Ab Initio Ligand Field Theory (pilot matlab implementation)
   Alexander A. Auer      : GIAO ZORA, VPT2
   Ute Becker             : Parallelization
   Giovanni Bistoni       : ED, misc. LED, open-shell LED, HFLED
   Martin Brehm           : Molecular dynamics
   Dmytro Bykov           : SCF Hessian
   Vijay G. Chilkuri      : MRCI spin determinant printing, contributions to CSF-ICE
   Dipayan Datta          : RHF DLPNO-CCSD density
   Achintya Kumar Dutta   : EOM-CC, STEOM-CC
   Dmitry Ganyushin       : Spin-Orbit,Spin-Spin,Magnetic field MRCI
   Miquel Garcia          : C-PCM Hessian, Gaussian charge scheme
   Yang Guo               : DLPNO-NEVPT2, CIM, IAO-localization
   Andreas Hansen         : Spin unrestricted coupled pair/coupled cluster methods
   Benjamin Helmich-Paris : CASSCF linear response (MC-RPA)
   Lee Huntington         : MR-EOM, pCC
   Robert Izsak           : Overlap fitted RIJCOSX, COSX-SCS-MP3, EOM
   Christian Kollmar      : KDIIS, OOCD, Brueckner-CCSD(T), CCSD density
   Simone Kossmann        : Meta GGA functionals, TD-DFT gradient, OOMP2, MP2 Hessian
   Martin Krupicka        : AUTO-CI
   Lucas Lang             : DCDCAS
   Dagmar Lenk            : GEPOL surface, SMD
   Dimitrios Liakos       : Extrapolation schemes; Compound Job, initial MDCI parallelization
   Dimitrios Manganas     : Further ROCIS development; embedding schemes
   Dimitrios Pantazis     : SARC Basis sets
   Taras Petrenko         : DFT Hessian,TD-DFT gradient, ASA, ECA, R-Raman, ABS, FL, XAS/XES, NRVS
   Peter Pinski           : DLPNO-MP2, DLPNO-MP2 Gradient
   Christoph Reimann      : Effective Core Potentials
   Marius Retegan         : Local ZFS, SOC
   Christoph Riplinger    : Optimizer, TS searches, QM/MM, DLPNO-CCSD(T), (RO)-DLPNO pert. Triples
   Tobias Risthaus        : Range-separated hybrids, TD-DFT gradient, RPA, STAB
   Michael Roemelt        : Original ROCIS implementation
   Masaaki Saitow         : Open-shell DLPNO-CCSD energy and density
   Barbara Sandhoefer     : DKH picture change effects
   Avijit Sen             : IP-ROCIS
   Kantharuban Sivalingam : CASSCF convergence, NEVPT2, FIC-MRCI
   Bernardo de Souza      : ESD, SOC TD-DFT
   Georgi Stoychev        : AutoAux, RI-MP2 NMR
   Willem Van den Heuvel  : Paramagnetic NMR
   Boris Wezisla          : Elementary symmetry handling
   Frank Wennmohs         : Technical directorship


 We gratefully acknowledge several colleagues who have allowed us to
 interface, adapt or use parts of their codes:
   Stefan Grimme, W. Hujo, H. Kruse,             : VdW corrections, initial TS optimization,
                  C. Bannwarth                     DFT functionals, gCP, sTDA/sTD-DF
   Ed Valeev, F. Pavosevic, A. Kumar             : LibInt (2-el integral package), F12 methods
   Garnet Chan, S. Sharma, J. Yang, R. Olivares  : DMRG
   Ulf Ekstrom                                   : XCFun DFT Library
   Mihaly Kallay                                 : mrcc  (arbitrary order and MRCC methods)
   Andreas Klamt, Michael Diedenhofen            : otool_cosmo (COSMO solvation model)
   Jiri Pittner, Ondrej Demel                    : Mk-CCSD
   Frank Weinhold                                : gennbo (NPA and NBO analysis)
   Christopher J. Cramer and Donald G. Truhlar   : smd solvation model
   Lars Goerigk                                  : TD-DFT with DH, B97 family of functionals
   V. Asgeirsson, H. Jonsson                     : NEB implementation
   FAccTs GmbH                                   : IRC, NEB, NEB-TS, Multilevel, MM, QM/MM, CI optimization
   S Lehtola, MJT Oliveira, MAL Marques          : LibXC Library


 Your calculation uses the libint2 library for the computation of 2-el integrals
 For citations please refer to: http://libint.valeyev.net

 Your ORCA version has been built with support for libXC version: 4.2.3
 For citations please refer to: https://tddft.org/programs/libxc/

 This ORCA versions uses:
   CBLAS   interface :  Fast vector & matrix operations
   LAPACKE interface :  Fast linear algebra routines
   SCALAPACK package :  Parallel linear algebra routines


Your calculation utilizes the atom-pairwise dispersion correction
with the Becke-Johnson damping scheme (D3BJ)
Cite in your paper:
S.Grimme, S.Ehrlich, L.Goerigk, J Comput Chem, (2011), 32, 1456–1465 
S.Grimme, J.Antony, S.Ehrlich and H.Krieg, J.Chem.Phys., 132, (2010), 154104 
   

----- Orbital basis set information -----
Your calculation utilizes the basis: def2-TZVPPD
   F. Weigend and R. Ahlrichs, Phys. Chem. Chem. Phys. 7, 3297 (2005).
   D. Rappoport and F. Furche, J. Chem. Phys. 133 134105 (2010).

----- AuxC basis set information -----
Your calculation utilizes the auxiliary basis: def2-TZVPPD/C
   A. Hellweg, C. Hattig, S. Hofener and W. Klopper, Theor. Chem. Acc. 117, 587 (2007).

----- AuxJK basis set information -----
Your calculation utilizes the auxiliary basis: def2/JK
   H-Ba, Hf-Rn: F. Weigend, J. Comput. Chem. 29, 167 (2008).

cite the ECPs for Ru [Def2-ECP] as follows:
Ce-Yb(ecp-28): M. Dolg, H. Stoll, H.Preuss, J. Chem. Phys., 1989, 90, 1730-1734.
Y-Cd(ecp-28), Hf-Hg(ecp-46): D. Andrae,U. Haeussermann, M. Dolg, H. Stoll, H. Preuss, Theor. Chim. Acta, 1990, 77, 123-141.
In-Sb(ecp-28), Tl-Bi(ecp-46): B. Metz, H. Stoll, M. Dolg, J. Chem. Phys., 2000, 113, 2563-2569.
Te-Xe(ecp-28), Po-Rn(ecp-46): K. A. Peterson, D. Figgen, E. Goll, H. Stoll, M. Dolg, J. Chem. Phys., 2003, 119, 11113-11123.
Rb(ecp-28), Cs(ecp-46): T. Leininger, A. Nicklass, W. Kuechle, H. Stoll, M. Dolg, A. Bergner, Chem. Phys. Lett., 1996, 255, 274-280.
Sr(ecp-28), Ba(ecp-46): M. Kaupp, P. V. Schleyer, H. Stoll and H. Preuss, J. Chem. Phys., 1991, 94, 1360-1366.
La(ecp-46): M. Dolg, H. Stoll, A. Savin, H. Preuss, Theor. Chim. Acta, 1989, 75, 173-194.
Lu(ecp-28): X. Cao, M. Dolg, J. Chem. Phys., 2001, 115, 7348-7355.

ECP parameters for Ru [Def2-ECP] have been obtained from:
TURBOMOLE (7.0.2)

================================================================================
                                        WARNINGS
                       Please study these warnings very carefully!
================================================================================


WARNING: No MP2 level density has been requested!
         To caclulate MP2 level properties use
         %mp2 Density relaxed end
         or
         %mp2 Density unrelaxed end
         Otherwise for double-hybrid DFT only the energy is correct!

WARNING: There are different parametrizations of Gershom Martin's DSD-DFs
         for use with and without D3(BJ)!
         You are using the D3(BJ) parametrized version,
         consistent with the 2013 article (S. Kozuch and J. M. L. Martin, JCC 2013, 34, 2327)

WARNING: The frozen-core approximation is turned on by default for 
         the MP2 part of double-hybrid DFT.

INFO   : the flag for use of LIBINT has been found!

================================================================================
                                       INPUT FILE
================================================================================
NAME = MOR13_ed24.in
|  1> #
|  2> # MOR13_ed24 ri-DSD-BLYP/2013-D3BJ/Def2-TZVPPD
|  3> #
|  4> ! rijk ri-dsd-blyp/2013 d3bj def2-tzvppd def2/jk def2-tzvppd/c grid4 nofinalgrid
|  5> 
|  6> *xyz 0 1
|  7> Ru       0.947158   -0.829727   -0.745491 
|  8> Cl       0.759536   -0.029843   -2.889353 
|  9> Cl       0.924249   -2.813196    0.406526 
| 10> P       -0.892858    0.059346    0.070519 
| 11> C        2.105770    0.298407    0.120511 
| 12> C       -1.060848    0.304387    1.904454 
| 13> C       -0.839571   -1.004781    2.681683 
| 14> C       -1.204393   -0.821649    4.161076 
| 15> C       -0.398097    0.318884    4.794081 
| 16> C       -0.569062    1.619286    3.999752 
| 17> C       -0.203235    1.422010    2.520494 
| 18> C       -1.361193    1.675223   -0.723442 
| 19> C       -0.190670    2.668218   -0.863157 
| 20> C       -0.617010    3.874515   -1.709852 
| 21> C       -1.846047    4.572418   -1.115292 
| 22> C       -3.005112    3.584426   -0.940399 
| 23> C       -2.585621    2.369196   -0.098214 
| 24> C       -2.266825   -1.149912   -0.318948 
| 25> C       -3.572387   -1.071522    0.495585 
| 26> C       -4.464103   -2.278800    0.161919 
| 27> C       -4.771803   -2.353480   -1.338652 
| 28> C       -3.481398   -2.368379   -2.166970 
| 29> C       -2.587234   -1.168835   -1.825450 
| 30> H        1.784946    1.202955    0.645761 
| 31> H       -2.115821    0.600966    2.014947 
| 32> H        0.212402   -1.294098    2.586311 
| 33> H       -1.418447   -1.824644    2.245913 
| 34> H       -1.028300   -1.758851    4.701667 
| 35> H       -2.278352   -0.600113    4.247046 
| 36> H        0.665500    0.042496    4.804792 
| 37> H       -0.699682    0.468438    5.837587 
| 38> H        0.050942    2.415093    4.429614 
| 39> H       -1.613622    1.955784    4.068877 
| 40> H       -0.334942    2.362910    1.978268 
| 41> H        0.854749    1.145201    2.447640 
| 42> H       -1.618911    1.357234   -1.743817 
| 43> H        0.662106    2.166051   -1.325328 
| 44> H        0.125060    3.019280    0.127484 
| 45> H       -0.846735    3.527698   -2.726710 
| 46> H        0.219033    4.578695   -1.795316 
| 47> H       -2.156025    5.410629   -1.750528 
| 48> H       -1.583038    4.996180   -0.135073 
| 49> H       -3.336384    3.234608   -1.928191 
| 50> H       -3.864727    4.078543   -0.471441 
| 51> H       -2.338056    2.702879    0.918040 
| 52> H       -3.425897    1.674720   -0.010060 
| 53> H       -1.782812   -2.105972   -0.070582 
| 54> H       -4.113822   -0.149509    0.251918 
| 55> H       -3.369403   -1.053503    1.570362 
| 56> H       -5.393534   -2.221008    0.741223 
| 57> H       -3.947864   -3.196972    0.475160 
| 58> H       -5.374229   -1.479434   -1.625752 
| 59> H       -5.376744   -3.241409   -1.557196 
| 60> H       -3.714322   -2.363052   -3.238224 
| 61> H       -2.925851   -3.294401   -1.964642 
| 62> H       -1.666731   -1.193589   -2.417765 
| 63> H       -3.111760   -0.241279   -2.093787 
| 64> C        3.546496    0.126586    0.028364 
| 65> C        4.389877    1.228237    0.286046 
| 66> C        5.770146    1.113346    0.161104 
| 67> C        6.339467   -0.106460   -0.212258 
| 68> C        5.519417   -1.212931   -0.453677 
| 69> C        4.139965   -1.102236   -0.332827 
| 70> H        3.943201    2.177101    0.573360 
| 71> H        6.405205    1.972855    0.357301 
| 72> H        5.961339   -2.166857   -0.726887 
| 73> H        3.508028   -1.975261   -0.480581 
| 74> H        7.417884   -0.197821   -0.305099 
| 75> *
| 76> 
| 77> %maxcore 5000
| 78> 
| 79> %pal
| 80> nprocs = 24
| 81> end
| 82> 
| 83> 
| 84>                          ****END OF INPUT****
================================================================================

                       ****************************
                       * Single Point Calculation *
                       ****************************

---------------------------------
CARTESIAN COORDINATES (ANGSTROEM)
---------------------------------
  Ru     0.947158   -0.829727   -0.745491
  Cl     0.759536   -0.029843   -2.889353
  Cl     0.924249   -2.813196    0.406526
  P     -0.892858    0.059346    0.070519
  C      2.105770    0.298407    0.120511
  C     -1.060848    0.304387    1.904454
  C     -0.839571   -1.004781    2.681683
  C     -1.204393   -0.821649    4.161076
  C     -0.398097    0.318884    4.794081
  C     -0.569062    1.619286    3.999752
  C     -0.203235    1.422010    2.520494
  C     -1.361193    1.675223   -0.723442
  C     -0.190670    2.668218   -0.863157
  C     -0.617010    3.874515   -1.709852
  C     -1.846047    4.572418   -1.115292
  C     -3.005112    3.584426   -0.940399
  C     -2.585621    2.369196   -0.098214
  C     -2.266825   -1.149912   -0.318948
  C     -3.572387   -1.071522    0.495585
  C     -4.464103   -2.278800    0.161919
  C     -4.771803   -2.353480   -1.338652
  C     -3.481398   -2.368379   -2.166970
  C     -2.587234   -1.168835   -1.825450
  H      1.784946    1.202955    0.645761
  H     -2.115821    0.600966    2.014947
  H      0.212402   -1.294098    2.586311
  H     -1.418447   -1.824644    2.245913
  H     -1.028300   -1.758851    4.701667
  H     -2.278352   -0.600113    4.247046
  H      0.665500    0.042496    4.804792
  H     -0.699682    0.468438    5.837587
  H      0.050942    2.415093    4.429614
  H     -1.613622    1.955784    4.068877
  H     -0.334942    2.362910    1.978268
  H      0.854749    1.145201    2.447640
  H     -1.618911    1.357234   -1.743817
  H      0.662106    2.166051   -1.325328
  H      0.125060    3.019280    0.127484
  H     -0.846735    3.527698   -2.726710
  H      0.219033    4.578695   -1.795316
  H     -2.156025    5.410629   -1.750528
  H     -1.583038    4.996180   -0.135073
  H     -3.336384    3.234608   -1.928191
  H     -3.864727    4.078543   -0.471441
  H     -2.338056    2.702879    0.918040
  H     -3.425897    1.674720   -0.010060
  H     -1.782812   -2.105972   -0.070582
  H     -4.113822   -0.149509    0.251918
  H     -3.369403   -1.053503    1.570362
  H     -5.393534   -2.221008    0.741223
  H     -3.947864   -3.196972    0.475160
  H     -5.374229   -1.479434   -1.625752
  H     -5.376744   -3.241409   -1.557196
  H     -3.714322   -2.363052   -3.238224
  H     -2.925851   -3.294401   -1.964642
  H     -1.666731   -1.193589   -2.417765
  H     -3.111760   -0.241279   -2.093787
  C      3.546496    0.126586    0.028364
  C      4.389877    1.228237    0.286046
  C      5.770146    1.113346    0.161104
  C      6.339467   -0.106460   -0.212258
  C      5.519417   -1.212931   -0.453677
  C      4.139965   -1.102236   -0.332827
  H      3.943201    2.177101    0.573360
  H      6.405205    1.972855    0.357301
  H      5.961339   -2.166857   -0.726887
  H      3.508028   -1.975261   -0.480581
  H      7.417884   -0.197821   -0.305099

----------------------------
CARTESIAN COORDINATES (A.U.)
----------------------------
  NO LB      ZA    FRAG     MASS         X           Y           Z
   0 Ru   16.0000*   0   101.070    1.789869   -1.567957   -1.408774
   1 Cl   17.0000    0    35.453    1.435315   -0.056395   -5.460086
   2 Cl   17.0000    0    35.453    1.746577   -5.316170    0.768223
   3 P    15.0000    0    30.974   -1.687257    0.112148    0.133262
   4 C     6.0000    0    12.011    3.979329    0.563908    0.227733
   5 C     6.0000    0    12.011   -2.004712    0.575208    3.598896
   6 C     6.0000    0    12.011   -1.586559   -1.898761    5.067646
   7 C     6.0000    0    12.011   -2.275973   -1.552692    7.863294
   8 C     6.0000    0    12.011   -0.752294    0.602603    9.059500
   9 C     6.0000    0    12.011   -1.075371    3.060007    7.558436
  10 C     6.0000    0    12.011   -0.384058    2.687209    4.763043
  11 C     6.0000    0    12.011   -2.572282    3.165713   -1.367107
  12 C     6.0000    0    12.011   -0.360314    5.042201   -1.631130
  13 C     6.0000    0    12.011   -1.165980    7.321772   -3.231152
  14 C     6.0000    0    12.011   -3.488523    8.640618   -2.107596
  15 C     6.0000    0    12.011   -5.678839    6.773583   -1.777097
  16 C     6.0000    0    12.011   -4.886116    4.477132   -0.185598
  17 C     6.0000    0    12.011   -4.283678   -2.173019   -0.602724
  18 C     6.0000    0    12.011   -6.750833   -2.024883    0.936520
  19 C     6.0000    0    12.011   -8.435932   -4.306308    0.305983
  20 C     6.0000    0    12.011   -9.017401   -4.447433   -2.529686
  21 C     6.0000    0    12.011   -6.578889   -4.475588   -4.094980
  22 C     6.0000    0    12.011   -4.889164   -2.208778   -3.449601
  23 H     1.0000    0     1.008    3.373059    2.273256    1.220311
  24 H     1.0000    0     1.008   -3.998322    1.135661    3.807698
  25 H     1.0000    0     1.008    0.401382   -2.445491    4.887419
  26 H     1.0000    0     1.008   -2.680476   -3.448077    4.244160
  27 H     1.0000    0     1.008   -1.943205   -3.323747    8.884863
  28 H     1.0000    0     1.008   -4.305461   -1.134049    8.025754
  29 H     1.0000    0     1.008    1.257613    0.080306    9.079741
  30 H     1.0000    0     1.008   -1.322207    0.885220   11.031441
  31 H     1.0000    0     1.008    0.096266    4.563864    8.370757
  32 H     1.0000    0     1.008   -3.049304    3.695896    7.689063
  33 H     1.0000    0     1.008   -0.632949    4.465253    3.738385
  34 H     1.0000    0     1.008    1.615242    2.164116    4.625369
  35 H     1.0000    0     1.008   -3.059298    2.564801   -3.295337
  36 H     1.0000    0     1.008    1.251199    4.093243   -2.504507
  37 H     1.0000    0     1.008    0.236329    5.705612    0.240910
  38 H     1.0000    0     1.008   -1.600097    6.666383   -5.152735
  39 H     1.0000    0     1.008    0.413912    8.652480   -3.392656
  40 H     1.0000    0     1.008   -4.074297   10.224607   -3.308019
  41 H     1.0000    0     1.008   -2.991508    9.441412   -0.255251
  42 H     1.0000    0     1.008   -6.304852    6.112523   -3.643753
  43 H     1.0000    0     1.008   -7.303276    7.707329   -0.890894
  44 H     1.0000    0     1.008   -4.418286    5.107701    1.734844
  45 H     1.0000    0     1.008   -6.474007    3.164762   -0.019011
  46 H     1.0000    0     1.008   -3.369026   -3.979710   -0.133381
  47 H     1.0000    0     1.008   -7.773997   -0.282531    0.476056
  48 H     1.0000    0     1.008   -6.367249   -1.990832    2.967554
  49 H     1.0000    0     1.008  -10.192302   -4.197097    1.400708
  50 H     1.0000    0     1.008   -7.460382   -6.041402    0.897922
  51 H     1.0000    0     1.008  -10.155821   -2.795725   -3.072226
  52 H     1.0000    0     1.008  -10.160574   -6.125375   -2.942674
  53 H     1.0000    0     1.008   -7.019051   -4.465521   -6.119357
  54 H     1.0000    0     1.008   -5.529057   -6.225516   -3.712635
  55 H     1.0000    0     1.008   -3.149665   -2.255556   -4.568914
  56 H     1.0000    0     1.008   -5.880374   -0.455951   -3.956684
  57 C     6.0000    0    12.011    6.701906    0.239213    0.053600
  58 C     6.0000    0    12.011    8.295665    2.321032    0.540549
  59 C     6.0000    0    12.011   10.903996    2.103919    0.304442
  60 C     6.0000    0    12.011   11.979856   -0.201180   -0.401109
  61 C     6.0000    0    12.011   10.430187   -2.292107   -0.857325
  62 C     6.0000    0    12.011    7.823400   -2.082924   -0.628952
  63 H     1.0000    0     1.008    7.451570    4.114125    1.083493
  64 H     1.0000    0     1.008   12.104083    3.728156    0.675201
  65 H     1.0000    0     1.008   11.265298   -4.094766   -1.373617
  66 H     1.0000    0     1.008    6.629212   -3.732702   -0.908166
  67 H     1.0000    0     1.008   14.017769   -0.373828   -0.576554
* core charge reduced due to ECP

--------------------------------
INTERNAL COORDINATES (ANGSTROEM)
--------------------------------
 Ru     0   0   0     0.000000000000     0.00000000     0.00000000
 Cl     1   0   0     2.295900847899     0.00000000     0.00000000
 Cl     1   2   0     2.293865136518   140.29965372     0.00000000
 P      1   2   3     2.200450408368    97.88463508   245.70575770
 C      1   2   3     1.834401142745   106.15174997   147.07638687
 C      4   1   2     1.857843727552   119.66760336   201.55202124
 C      6   4   1     1.538495785303   111.92830520   304.93531584
 C      7   6   4     1.534677839013   110.56418153   189.09172846
 C      8   7   6     1.533500601151   111.20310342   303.02765009
 C      9   8   7     1.533373063892   110.99509733    54.83916019
 C     10   9   8     1.536538787232   111.30219877   304.91591605
 C      4   1   2     1.860314548907   113.77815153   329.00465759
 C     12   4   1     1.541325223559   114.02259580   313.22869322
 C     13  12   4     1.534213372003   110.21466333   171.53061300
 C     14  13  12     1.533330407439   111.50724957    56.85839270
 C     15  14  13     1.533019056548   110.91143908   304.35472021
 C     16  15  14     1.536890440534   111.45310168    55.15610293
 C      4   1   2     1.871302960972   106.00288258    85.96343543
 C     18   4   1     1.540811843164   118.63502093   160.04180791
 C     19  18   4     1.537533932470   109.67879145   188.65236698
 C     20  19  18     1.533613288427   111.52681273   302.70640496
 C     21  20  19     1.533452885924   111.11023644    55.19416831
 C     22  21  20     1.534624050780   111.25414405   305.36994244
 H      5   1   2     1.094085319242   123.35891616    88.80852432
 H      6   4   1     1.101424458154   102.77665300   188.77919001
 H      7   6   4     1.095192831241   108.59948900    68.18161816
 H      7   6   4     1.094151842774   111.12019359   311.97117441
 H      8   7   6     1.096172870826   109.58378276   180.74942481
 H      8   7   6     1.099934986205   109.35878047    63.88919413
 H      9   8   7     1.098973898905   109.01625047   294.71507312
 H      9   8   7     1.096460069121   110.46735465   177.49383577
 H     10   9   8     1.096583366785   110.44742320   182.89603360
 H     10   9   8     1.099597546027   109.44335461    65.49257885
 H     11  10   9     1.093914338020   109.76117855   179.94201006
 H     11  10   9     1.096020561875   109.04082875   297.44393107
 H     12   4   1     1.099409256042   101.76452229    67.19578351
 H     13  12   4     1.092245684499   109.57768061    50.12568195
 H     13  12   4     1.097405828135   110.04511934   291.85119040
 H     14  13  12     1.098660911873   108.70453267   295.95941390
 H     14  13  12     1.096422120146   109.63960483   179.47554812
 H     15  14  13     1.096452833779   110.48185524   181.87458688
 H     15  14  13     1.099807826252   109.22538520    64.65208319
 H     16  15  14     1.099020839826   109.29884830   294.79558208
 H     16  15  14     1.096818655785   110.54837093   177.34121982
 H     17  16  15     1.097909361573   109.17501416    64.32425897
 H     17  16  15     1.093678105508   109.66708234   181.20712713
 H     18   4   1     1.100002262600   101.04555854    43.15949200
 H     19  18   4     1.096646450905   110.09956968    68.71171871
 H     19  18   4     1.093925403465   111.28444480   309.96713563
 H     20  19  18     1.096711002699   109.60269819   180.08040961
 H     20  19  18     1.098936963973   108.76831050    63.47048767
 H     21  20  19     1.099681729225   109.06613910   294.85716105
 H     21  20  19     1.096418260728   110.19197978   177.89902617
 H     22  21  20     1.096296994076   110.42552651   183.28147898
 H     22  21  20     1.098674580245   109.52522575    65.76064239
 H     23  22  21     1.094886109488   110.59715164   179.63190621
 H     23  22  21     1.098859592205   109.10683448   296.76897607
 C      5   1   2     1.453858635744   121.55350982   275.79171145
 C     58   5   1     1.411143667415   119.23695835   157.74616389
 C     59  58   5     1.390666371782   120.81629153   182.30044999
 C     60  59  58     1.396943900706   120.04319208   359.43801459
 C     61  60  59     1.398228597155   119.87548172   359.69021481
 C     62  61  60     1.389152952640   120.28607460     0.44379187
 H     59  58   5     1.087387545481   118.94509438     1.55003577
 H     60  59  58     1.086530679443   119.90320828   179.62755910
 H     62  61  60     1.086238266524   119.98461143   181.08623699
 H     63  62  61     1.087818122257   120.07262893   182.56686235
 H     61  60  59     1.086254808731   120.05900449   180.30584786

---------------------------
INTERNAL COORDINATES (A.U.)
---------------------------
 Ru     0   0   0     0.000000000000     0.00000000     0.00000000
 Cl     1   0   0     4.338623833167     0.00000000     0.00000000
 Cl     1   2   0     4.334776896168   140.29965372     0.00000000
 P      1   2   3     4.158248643090    97.88463508   245.70575770
 C      1   2   3     3.466515779540   106.15174997   147.07638687
 C      4   1   2     3.510815844698   119.66760336   201.55202124
 C      6   4   1     2.907335692414   111.92830520   304.93531584
 C      7   6   4     2.900120819532   110.56418153   189.09172846
 C      8   7   6     2.897896162379   111.20310342   303.02765009
 C      9   8   7     2.897655151888   110.99509733    54.83916019
 C     10   9   8     2.903637502016   111.30219877   304.91591605
 C      4   1   2     3.515485020383   113.77815153   329.00465759
 C     12   4   1     2.912682555831   114.02259580   313.22869322
 C     13  12   4     2.899243104086   110.21466333   171.53061300
 C     14  13  12     2.897574542874   111.50724957    56.85839270
 C     15  14  13     2.896986174957   110.91143908   304.35472021
 C     16  15  14     2.904302030452   111.45310168    55.15610293
 C      4   1   2     3.536250109833   106.00288258    85.96343543
 C     18   4   1     2.911712407481   118.63502093   160.04180791
 C     19  18   4     2.905518053979   109.67879145   188.65236698
 C     20  19  18     2.898109110470   111.52681273   302.70640496
 C     21  20  19     2.897805993668   111.11023644    55.19416831
 C     22  21  20     2.900019174503   111.25414405   305.36994244
 H      5   1   2     2.067521620510   123.35891616    88.80852432
 H      6   4   1     2.081390583113   102.77665300   188.77919001
 H      7   6   4     2.069614514880   108.59948900    68.18161816
 H      7   6   4     2.067647331767   111.12019359   311.97117441
 H      8   7   6     2.071466521295   109.58378276   180.74942481
 H      8   7   6     2.078575889045   109.35878047    63.88919413
 H      9   8   7     2.076759697258   109.01625047   294.71507312
 H      9   8   7     2.072009247419   110.46735465   177.49383577
 H     10   9   8     2.072242246237   110.44742320   182.89603360
 H     10   9   8     2.077938219523   109.44335461    65.49257885
 H     11  10   9     2.067198512827   109.76117855   179.94201006
 H     11  10   9     2.071178699090   109.04082875   297.44393107
 H     12   4   1     2.077582403017   101.76452229    67.19578351
 H     13  12   4     2.064045214660   109.57768061    50.12568195
 H     13  12   4     2.073796472944   110.04511934   291.85119040
 H     14  13  12     2.076168237484   108.70453267   295.95941390
 H     14  13  12     2.071937534249   109.63960483   179.47554812
 H     15  14  13     2.071995574603   110.48185524   181.87458688
 H     15  14  13     2.078335591560   109.22538520    64.65208319
 H     16  15  14     2.076848402743   109.29884830   294.79558208
 H     16  15  14     2.072686878009   110.54837093   177.34121982
 H     17  16  15     2.074748013242   109.17501416    64.32425897
 H     17  16  15     2.066752098076   109.66708234   181.20712713
 H     18   4   1     2.078703023008   101.04555854    43.15949200
 H     19  18   4     2.072361457948   110.09956968    68.71171871
 H     19  18   4     2.067219423488   111.28444480   309.96713563
 H     20  19  18     2.072483443159   109.60269819   180.08040961
 H     20  19  18     2.076689900352   108.76831050    63.47048767
 H     21  20  19     2.078097302713   109.06613910   294.85716105
 H     21  20  19     2.071930241006   110.19197978   177.89902617
 H     22  21  20     2.071701080246   110.42552651   183.28147898
 H     22  21  20     2.076194066964   109.52522575    65.76064239
 H     23  22  21     2.069034894767   110.59715164   179.63190621
 H     23  22  21     2.076543688900   109.10683448   296.76897607
 C      5   1   2     2.747394658992   121.55350982   275.79171145
 C     58   5   1     2.666675067032   119.23695835   157.74616389
 C     59  58   5     2.627978586322   120.81629153   182.30044999
 C     60  59  58     2.639841396787   120.04319208   359.43801459
 C     61  60  59     2.642269121240   119.87548172   359.69021481
 C     62  61  60     2.625118638618   120.28607460     0.44379187
 H     59  58   5     2.054864662397   118.94509438     1.55003577
 H     60  59  58     2.053245420251   119.90320828   179.62755910
 H     62  61  60     2.052692839915   119.98461143   181.08623699
 H     63  62  61     2.055678334582   120.07262893   182.56686235
 H     61  60  59     2.052724100156   120.05900449   180.30584786

---------------------
BASIS SET INFORMATION
---------------------
There are 5 groups of distinct atoms

 Group   1 Type Ru  : 7s7p5d2f1g contracted to 6s4p3d2f1g pattern {211111/4111/311/11/1}
 Group   2 Type Cl  : 15s10p4d1f contracted to 6s6p4d1f pattern {732111/511111/1111/1}
 Group   3 Type P   : 15s9p4d1f contracted to 6s5p4d1f pattern {732111/51111/1111/1}
 Group   4 Type C   : 12s6p3d1f contracted to 6s3p3d1f pattern {621111/411/111/1}
 Group   5 Type H   : 5s3p1d contracted to 3s3p1d pattern {311/111/1}

Atom   0Ru   basis set group =>   1
Atom   1Cl   basis set group =>   2
Atom   2Cl   basis set group =>   2
Atom   3P    basis set group =>   3
Atom   4C    basis set group =>   4
Atom   5C    basis set group =>   4
Atom   6C    basis set group =>   4
Atom   7C    basis set group =>   4
Atom   8C    basis set group =>   4
Atom   9C    basis set group =>   4
Atom  10C    basis set group =>   4
Atom  11C    basis set group =>   4
Atom  12C    basis set group =>   4
Atom  13C    basis set group =>   4
Atom  14C    basis set group =>   4
Atom  15C    basis set group =>   4
Atom  16C    basis set group =>   4
Atom  17C    basis set group =>   4
Atom  18C    basis set group =>   4
Atom  19C    basis set group =>   4
Atom  20C    basis set group =>   4
Atom  21C    basis set group =>   4
Atom  22C    basis set group =>   4
Atom  23H    basis set group =>   5
Atom  24H    basis set group =>   5
Atom  25H    basis set group =>   5
Atom  26H    basis set group =>   5
Atom  27H    basis set group =>   5
Atom  28H    basis set group =>   5
Atom  29H    basis set group =>   5
Atom  30H    basis set group =>   5
Atom  31H    basis set group =>   5
Atom  32H    basis set group =>   5
Atom  33H    basis set group =>   5
Atom  34H    basis set group =>   5
Atom  35H    basis set group =>   5
Atom  36H    basis set group =>   5
Atom  37H    basis set group =>   5
Atom  38H    basis set group =>   5
Atom  39H    basis set group =>   5
Atom  40H    basis set group =>   5
Atom  41H    basis set group =>   5
Atom  42H    basis set group =>   5
Atom  43H    basis set group =>   5
Atom  44H    basis set group =>   5
Atom  45H    basis set group =>   5
Atom  46H    basis set group =>   5
Atom  47H    basis set group =>   5
Atom  48H    basis set group =>   5
Atom  49H    basis set group =>   5
Atom  50H    basis set group =>   5
Atom  51H    basis set group =>   5
Atom  52H    basis set group =>   5
Atom  53H    basis set group =>   5
Atom  54H    basis set group =>   5
Atom  55H    basis set group =>   5
Atom  56H    basis set group =>   5
Atom  57C    basis set group =>   4
Atom  58C    basis set group =>   4
Atom  59C    basis set group =>   4
Atom  60C    basis set group =>   4
Atom  61C    basis set group =>   4
Atom  62C    basis set group =>   4
Atom  63H    basis set group =>   5
Atom  64H    basis set group =>   5
Atom  65H    basis set group =>   5
Atom  66H    basis set group =>   5
Atom  67H    basis set group =>   5
---------------------------------
AUXILIARY/C BASIS SET INFORMATION
---------------------------------
There are 5 groups of distinct atoms

 Group   1 Type Ru  : 8s7p6d5f4g3h1i contracted to 8s7p6d5f4g3h1i pattern {11111111/1111111/111111/11111/1111/111/1}
 Group   2 Type Cl  : 12s9p8d6f2g contracted to 12s9p8d6f2g pattern {111111111111/111111111/11111111/111111/11}
 Group   3 Type P   : 12s9p8d6f2g contracted to 12s9p8d6f2g pattern {111111111111/111111111/11111111/111111/11}
 Group   4 Type C   : 9s7p6d4f1g contracted to 9s7p5d4f1g pattern {111111111/1111111/21111/1111/1}
 Group   5 Type H   : 5s4p3d1f contracted to 5s4p3d1f pattern {11111/1111/111/1}

Atom   0Ru   basis set group =>   1
Atom   1Cl   basis set group =>   2
Atom   2Cl   basis set group =>   2
Atom   3P    basis set group =>   3
Atom   4C    basis set group =>   4
Atom   5C    basis set group =>   4
Atom   6C    basis set group =>   4
Atom   7C    basis set group =>   4
Atom   8C    basis set group =>   4
Atom   9C    basis set group =>   4
Atom  10C    basis set group =>   4
Atom  11C    basis set group =>   4
Atom  12C    basis set group =>   4
Atom  13C    basis set group =>   4
Atom  14C    basis set group =>   4
Atom  15C    basis set group =>   4
Atom  16C    basis set group =>   4
Atom  17C    basis set group =>   4
Atom  18C    basis set group =>   4
Atom  19C    basis set group =>   4
Atom  20C    basis set group =>   4
Atom  21C    basis set group =>   4
Atom  22C    basis set group =>   4
Atom  23H    basis set group =>   5
Atom  24H    basis set group =>   5
Atom  25H    basis set group =>   5
Atom  26H    basis set group =>   5
Atom  27H    basis set group =>   5
Atom  28H    basis set group =>   5
Atom  29H    basis set group =>   5
Atom  30H    basis set group =>   5
Atom  31H    basis set group =>   5
Atom  32H    basis set group =>   5
Atom  33H    basis set group =>   5
Atom  34H    basis set group =>   5
Atom  35H    basis set group =>   5
Atom  36H    basis set group =>   5
Atom  37H    basis set group =>   5
Atom  38H    basis set group =>   5
Atom  39H    basis set group =>   5
Atom  40H    basis set group =>   5
Atom  41H    basis set group =>   5
Atom  42H    basis set group =>   5
Atom  43H    basis set group =>   5
Atom  44H    basis set group =>   5
Atom  45H    basis set group =>   5
Atom  46H    basis set group =>   5
Atom  47H    basis set group =>   5
Atom  48H    basis set group =>   5
Atom  49H    basis set group =>   5
Atom  50H    basis set group =>   5
Atom  51H    basis set group =>   5
Atom  52H    basis set group =>   5
Atom  53H    basis set group =>   5
Atom  54H    basis set group =>   5
Atom  55H    basis set group =>   5
Atom  56H    basis set group =>   5
Atom  57C    basis set group =>   4
Atom  58C    basis set group =>   4
Atom  59C    basis set group =>   4
Atom  60C    basis set group =>   4
Atom  61C    basis set group =>   4
Atom  62C    basis set group =>   4
Atom  63H    basis set group =>   5
Atom  64H    basis set group =>   5
Atom  65H    basis set group =>   5
Atom  66H    basis set group =>   5
Atom  67H    basis set group =>   5
----------------------------------
AUXILIARY/JK BASIS SET INFORMATION
----------------------------------
There are 5 groups of distinct atoms

 Group   1 Type Ru  : 13s12p10d9f6g3h2i contracted to 11s10p9d8f6g3h2i pattern {31111111111/3111111111/211111111/21111111/111111/111/11}
 Group   2 Type Cl  : 16s12p10d4f1g contracted to 13s11p9d4f1g pattern {4111111111111/21111111111/211111111/1111/1}
 Group   3 Type P   : 16s12p10d4f1g contracted to 13s11p9d4f1g pattern {4111111111111/21111111111/211111111/1111/1}
 Group   4 Type C   : 14s10p6d2f1g contracted to 10s8p5d1f1g pattern {5111111111/31111111/21111/2/1}
 Group   5 Type H   : 4s2p2d contracted to 2s2p2d pattern {31/11/11}

Atom   0Ru   basis set group =>   1
Atom   1Cl   basis set group =>   2
Atom   2Cl   basis set group =>   2
Atom   3P    basis set group =>   3
Atom   4C    basis set group =>   4
Atom   5C    basis set group =>   4
Atom   6C    basis set group =>   4
Atom   7C    basis set group =>   4
Atom   8C    basis set group =>   4
Atom   9C    basis set group =>   4
Atom  10C    basis set group =>   4
Atom  11C    basis set group =>   4
Atom  12C    basis set group =>   4
Atom  13C    basis set group =>   4
Atom  14C    basis set group =>   4
Atom  15C    basis set group =>   4
Atom  16C    basis set group =>   4
Atom  17C    basis set group =>   4
Atom  18C    basis set group =>   4
Atom  19C    basis set group =>   4
Atom  20C    basis set group =>   4
Atom  21C    basis set group =>   4
Atom  22C    basis set group =>   4
Atom  23H    basis set group =>   5
Atom  24H    basis set group =>   5
Atom  25H    basis set group =>   5
Atom  26H    basis set group =>   5
Atom  27H    basis set group =>   5
Atom  28H    basis set group =>   5
Atom  29H    basis set group =>   5
Atom  30H    basis set group =>   5
Atom  31H    basis set group =>   5
Atom  32H    basis set group =>   5
Atom  33H    basis set group =>   5
Atom  34H    basis set group =>   5
Atom  35H    basis set group =>   5
Atom  36H    basis set group =>   5
Atom  37H    basis set group =>   5
Atom  38H    basis set group =>   5
Atom  39H    basis set group =>   5
Atom  40H    basis set group =>   5
Atom  41H    basis set group =>   5
Atom  42H    basis set group =>   5
Atom  43H    basis set group =>   5
Atom  44H    basis set group =>   5
Atom  45H    basis set group =>   5
Atom  46H    basis set group =>   5
Atom  47H    basis set group =>   5
Atom  48H    basis set group =>   5
Atom  49H    basis set group =>   5
Atom  50H    basis set group =>   5
Atom  51H    basis set group =>   5
Atom  52H    basis set group =>   5
Atom  53H    basis set group =>   5
Atom  54H    basis set group =>   5
Atom  55H    basis set group =>   5
Atom  56H    basis set group =>   5
Atom  57C    basis set group =>   4
Atom  58C    basis set group =>   4
Atom  59C    basis set group =>   4
Atom  60C    basis set group =>   4
Atom  61C    basis set group =>   4
Atom  62C    basis set group =>   4
Atom  63H    basis set group =>   5
Atom  64H    basis set group =>   5
Atom  65H    basis set group =>   5
Atom  66H    basis set group =>   5
Atom  67H    basis set group =>   5
-------------------------
ECP PARAMETER INFORMATION
-------------------------

 Group 1, Type Ru ECP Def2-ECP (replacing 28 core electrons, lmax=3)

Atom   0Ru   ECP group =>   1



           ************************************************************
           *        Program running with 24 parallel MPI-processes    *
           *              working on a common directory               *
           ************************************************************
------------------------------------------------------------------------------
                           ORCA GTO INTEGRAL CALCULATION
                           -- RI-GTO INTEGRALS CHOSEN --
------------------------------------------------------------------------------

                         BASIS SET STATISTICS AND STARTUP INFO

Gaussian basis set:
 # of primitive gaussian shells          ... 1012
 # of primitive gaussian functions       ... 2330
 # of contracted shells                  ...  664
 # of contracted basis functions         ... 1794
 Highest angular momentum                ...    4
 Maximum contraction depth               ...    7
Auxiliary gaussian basis set:
 # of primitive gaussian shells          ... 1321
 # of primitive gaussian functions       ... 3897
 # of contracted shells                  ... 1022
 # of contracted aux-basis functions     ... 3216
 Highest angular momentum                ...    6
 Maximum contraction depth               ...    5
Ratio of auxiliary to basis functions    ...  1.79
Integral package used                  ... LIBINT
 One Electron integrals                  
   ECP integrals                         ... done
 Ordering auxiliary basis shells         ... done
 Integral threshhold             Thresh  ...  1.000e-10
 Primitive cut-off               TCut    ...  1.000e-11
 Pre-screening matrix                    ... done
 Shell pair data                         ... 
 Ordering of the shell pairs             ... done (   0.034 sec) 157729 of 220780 pairs
 Determination of significant pairs      ... done (   0.001 sec)
 Creation of shell pair data             ... done (   0.014 sec)
 Storage of shell pair data              ... done (   0.024 sec)
 Shell pair data done in (   0.074 sec)
 Computing two index integrals           ... done
 Cholesky decomposition of the V-matrix  ... done


Timings:
 Total evaluation time                   ...  10.470 sec (  0.174 min)
 One electron matrix time                ...   8.318 sec (  0.139 min) = 79.4%
 Schwartz matrix evaluation time         ...   1.190 sec (  0.020 min) = 11.4%
 Two index repulsion integral time       ...   0.358 sec (  0.006 min) =  3.4%
 Cholesky decomposition of V             ...   0.500 sec (  0.008 min) =  4.8%
 Three index repulsion integral time     ...   0.000 sec (  0.000 min) =  0.0%



           ************************************************************
           *        Program running with 24 parallel MPI-processes    *
           *              working on a common directory               *
           ************************************************************
-------------------------------------------------------------------------------
                                 ORCA SCF
-------------------------------------------------------------------------------

------------
SCF SETTINGS
------------
Hamiltonian:
 Density Functional     Method          .... DFT(GTOs)
 Exchange Functional    Exchange        .... B88
   X-Alpha parameter    XAlpha          ....  0.666667
   Becke's b parameter  XBeta           ....  0.004200
 Correlation Functional Correlation     .... LYP
 LDA part of GGA corr.  LDAOpt          .... VWN-5
 Gradients option       PostSCFGGA      .... off
 Hybrid DFT is turned on
   Fraction HF Exchange ScalHFX         ....  0.710000
   Scaling of DF-GGA-X  ScalDFX         ....  0.290000
   Scaling of DF-GGA-C  ScalDFC         ....  0.540000
   Scaling of DF-LDA-C  ScalLDAC        ....  0.540000
   Perturbative correction              ....  1.000000
   Density functional embedding theory  .... OFF
 RI-approximation to the Coulomb term is turned on
   Number of auxiliary basis functions  .... 3216
   RI-JK (J+K treated both via RI)      .... on


General Settings:
 Integral files         IntName         .... MOR13_ed24
 Hartree-Fock type      HFTyp           .... RHF
 Total Charge           Charge          ....    0
 Multiplicity           Mult            ....    1
 Number of Electrons    NEL             ....  254
 Basis Dimension        Dim             .... 1794
 Nuclear Repulsion      ENuc            ....   3925.9709139951 Eh

Convergence Acceleration:
 DIIS                   CNVDIIS         .... on
   Start iteration      DIISMaxIt       ....    12
   Startup error        DIISStart       ....  0.200000
   # of expansion vecs  DIISMaxEq       ....     5
   Bias factor          DIISBfac        ....   1.050
   Max. coefficient     DIISMaxC        ....  10.000
 Newton-Raphson         CNVNR           .... off
 SOSCF                  CNVSOSCF        .... off
 Level Shifting         CNVShift        .... on
   Level shift para.    LevelShift      ....    0.2500
   Turn off err/grad.   ShiftErr        ....    0.0010
 Zerner damping         CNVZerner       .... off
 Static damping         CNVDamp         .... on
   Fraction old density DampFac         ....    0.7000
   Max. Damping (<1)    DampMax         ....    0.9800
   Min. Damping (>=0)   DampMin         ....    0.0000
   Turn off err/grad.   DampErr         ....    0.1000
 Fernandez-Rico         CNVRico         .... off

SCF Procedure:
 Maximum # iterations   MaxIter         ....   125
 SCF integral mode      SCFMode         .... Direct
   Integral package                     .... LIBINT
 Reset frequency        DirectResetFreq ....    20
 Integral Threshold     Thresh          ....  1.000e-10 Eh
 Primitive CutOff       TCut            ....  1.000e-11 Eh

Convergence Tolerance:
 Convergence Check Mode ConvCheckMode   .... Total+1el-Energy
 Convergence forced     ConvForced      .... 0
 Energy Change          TolE            ....  1.000e-06 Eh
 1-El. energy change                    ....  1.000e-03 Eh
 DIIS Error             TolErr          ....  1.000e-06


Diagonalization of the overlap matrix:
Smallest eigenvalue                        ... 2.919e-07
Time for diagonalization                   ...    0.369 sec
Threshold for overlap eigenvalues          ... 1.000e-08
Number of eigenvalues below threshold      ... 0
Time for construction of square roots      ...    0.418 sec
Total time needed                          ...    0.799 sec

-------------------
DFT GRID GENERATION
-------------------

General Integration Accuracy     IntAcc      ...  4.670
Radial Grid Type                 RadialGrid  ... Gauss-Chebyshev
Angular Grid (max. acc.)         AngularGrid ... Lebedev-302
Angular grid pruning method      GridPruning ... 3 (G Style)
Weight generation scheme         WeightScheme... Becke
Basis function cutoff            BFCut       ...    1.0000e-10
Integration weight cutoff        WCut        ...    1.0000e-14
Grids for H and He will be reduced by one unit

# of grid points (after initial pruning)     ... 318502 (   0.0 sec)
# of grid points (after weights+screening)   ... 267529 (   0.4 sec)
nearest neighbour list constructed           ...    0.0 sec
Grid point re-assignment to atoms done       ...    0.1 sec
Grid point division into batches done        ...    0.8 sec
Reduced shell lists constructed in    2.7 sec

Total number of grid points                  ...   267529
Total number of batches                      ...     4211
Average number of points per batch           ...       63
Average number of grid points per atom       ...     3934
Average number of shells per batch           ...   287.44 (43.29%)
Average number of basis functions per batch  ...   742.69 (41.40%)
Average number of large shells per batch     ...   186.08 (64.74%)
Average number of large basis fcns per batch ...   494.31 (66.56%)
Average number of aux-shells per batch       ...   287.44 (28.13%)
Average number of aux functions per batch    ...   742.69 (23.09%)
Maximum spatial batch extension              ...  16.36, 17.07, 11.26 au
Average spatial batch extension              ...   0.08,  0.10,  0.08 au

Time for grid setup =    3.216 sec

------------------------------
INITIAL GUESS: MODEL POTENTIAL
------------------------------
Loading Hartree-Fock densities                     ... done
  calling /sw/apps/orca/orca_4_2_0_linux_x86-64_openmpi314/orca MOR13_ed24_atom44.inp > MOR13_ed24_atom44.out in order to generate an atomic fitting density for atom 0 (Ru with ECP) on-the-fly... 
    atom 0 (Ru), assumed electronic state with S=5: 1s2 2s2 2p6 3s2 3p6 4s2 3d10 4p6 5s2 4d6           ... done
Calculating cut-offs                               ... done
Setting up the integral package                    ... done
Initializing the effective Hamiltonian             ... done
Starting the Coulomb interaction                   ... done (   0.7 sec)
Reading the grid                                   ... done
Mapping shells                                     ... done
Starting the XC term evaluation                    ... done (   1.9 sec)
  promolecular density results
     # of electrons  =    281.983225679
     EX              =   -347.281763155
     EC              =     -1.403774162
     EX+EC           =   -348.685537317
Transforming the Hamiltonian                       ... done (   0.2 sec)
Diagonalizing the Hamiltonian                      ... done (   0.4 sec)
Back transforming the eigenvectors                 ... done (   0.1 sec)
Now organizing SCF variables                       ... done
                      ------------------
                      INITIAL GUESS DONE (   8.7 sec)
                      ------------------
--------------
SCF ITERATIONS
--------------
ITER       Energy         Delta-E        Max-DP      RMS-DP      [F,P]     Damp
  0  -2327.1988873504   0.000000000000 1.47064530  0.00449245  0.3641582 0.7000
  1  -2327.0932605879   0.105626762559 0.84422062  0.00302308  0.3042716 0.7000
  2  -2327.2871899136  -0.193929325771 0.90140623  0.00238125  0.2381699 0.7000
                               ***Turning on DIIS***
  3  -2327.6280809085  -0.340890994813 0.90755485  0.00235647  0.1666335 0.7000
  4  -2327.9683047714  -0.340223862951 0.64131834  0.00169286  0.1015692 0.7000
  5  -2328.2147076759  -0.246402904458 1.37741744  0.00266458  0.0563713 0.0000
  6  -2328.4549573392  -0.240249663320 0.34848671  0.00102728  0.0495453 0.0000
  7  -2328.4659706692  -0.011013330000 0.18655375  0.00050422  0.0062126 0.0000
  8  -2328.4666381241  -0.000667454929 0.52552760  0.00063762  0.0032176 0.0000
  9  -2328.4669624969  -0.000324372795 0.36225359  0.00061350  0.0040468 0.0000
 10  -2328.4671284824  -0.000165985504 0.28909903  0.00049079  0.0012830 0.0000
 11  -2328.4671600005  -0.000031518066 0.81789066  0.00082606  0.0006252 0.0000
 12  -2328.4671730900  -0.000013089534 0.54445679  0.00053621  0.0004639 0.0000
 13  -2328.4671772585  -0.000004168481 0.22959864  0.00043077  0.0002236 0.0000
 14  -2328.4671784339  -0.000001175418 0.31123549  0.00037550  0.0001221 0.0000
                 **** Energy Check signals convergence ****

               *****************************************************
               *                     SUCCESS                       *
               *           SCF CONVERGED AFTER  15 CYCLES          *
               *****************************************************


----------------
TOTAL SCF ENERGY
----------------

Total Energy       :        -2328.46717879 Eh          -63360.81314 eV

Components:
Nuclear Repulsion  :         3925.97091400 Eh          106831.09976 eV
Electronic Energy  :        -6254.43809278 Eh         -170191.91289 eV
One Electron Energy:       -11046.66824629 Eh         -300595.12494 eV
Two Electron Energy:         4792.23015351 Eh          130403.21205 eV

Virial components:
Potential Energy   :        -4592.31291321 Eh         -124963.18737 eV
Kinetic Energy     :         2263.84573443 Eh           61602.37424 eV
Virial Ratio       :            2.02854499


DFT components:
N(Alpha)           :      127.000430678670 electrons
N(Beta)            :      127.000430678670 electrons
N(Total)           :      254.000861357340 electrons
E(X)               :      -67.042007657072 Eh       
E(C)               :       -4.778564936507 Eh       
E(XC)              :      -71.820572593579 Eh       
DFET-embed. en.    :        0.000000000000 Eh       

---------------
SCF CONVERGENCE
---------------

  Last Energy change         ...   -3.5187e-07  Tolerance :   1.0000e-06
  Last MAX-Density change    ...    1.6062e-01  Tolerance :   1.0000e-05
  Last RMS-Density change    ...    3.2684e-04  Tolerance :   1.0000e-06
  Last DIIS Error            ...    6.8510e-05  Tolerance :   1.0000e-06

             **** THE GBW FILE WAS UPDATED (MOR13_ed24.gbw) ****
             **** DENSITY FILE WAS UPDATED (MOR13_ed24.scfp) ****
             **** ENERGY FILE WAS UPDATED (MOR13_ed24.en.tmp) ****
             **** THE GBW FILE WAS UPDATED (MOR13_ed24.gbw) ****
             **** DENSITY FILE WAS UPDATED (MOR13_ed24.scfp) ****
----------------
ORBITAL ENERGIES
----------------

  NO   OCC          E(Eh)            E(eV) 
   0   2.0000    -103.580881     -2818.5791 
   1   2.0000    -103.580065     -2818.5569 
   2   2.0000     -78.943636     -2148.1656 
   3   2.0000     -10.894573      -296.4564 
   4   2.0000     -10.877111      -295.9812 
   5   2.0000     -10.874914      -295.9215 
   6   2.0000     -10.874095      -295.8992 
   7   2.0000     -10.871511      -295.8289 
   8   2.0000     -10.870827      -295.8103 
   9   2.0000     -10.869344      -295.7699 
  10   2.0000     -10.867860      -295.7295 
  11   2.0000     -10.867073      -295.7081 
  12   2.0000     -10.866922      -295.7040 
  13   2.0000     -10.860263      -295.5228 
  14   2.0000     -10.859435      -295.5002 
  15   2.0000     -10.857434      -295.4458 
  16   2.0000     -10.853679      -295.3436 
  17   2.0000     -10.851884      -295.2948 
  18   2.0000     -10.849710      -295.2356 
  19   2.0000     -10.849602      -295.2327 
  20   2.0000     -10.848542      -295.2038 
  21   2.0000     -10.848370      -295.1992 
  22   2.0000     -10.847876      -295.1857 
  23   2.0000     -10.847779      -295.1831 
  24   2.0000     -10.847348      -295.1714 
  25   2.0000     -10.845970      -295.1339 
  26   2.0000     -10.845257      -295.1144 
  27   2.0000     -10.844586      -295.0962 
  28   2.0000     -10.097563      -274.7687 
  29   2.0000     -10.096716      -274.7456 
  30   2.0000      -7.669896      -208.7085 
  31   2.0000      -7.669051      -208.6855 
  32   2.0000      -7.668443      -208.6689 
  33   2.0000      -7.668204      -208.6624 
  34   2.0000      -7.667608      -208.6462 
  35   2.0000      -7.667343      -208.6390 
  36   2.0000      -7.179719      -195.3701 
  37   2.0000      -5.171461      -140.7226 
  38   2.0000      -5.171384      -140.7205 
  39   2.0000      -5.170331      -140.6919 
  40   2.0000      -3.377671       -91.9111 
  41   2.0000      -2.128249       -57.9126 
  42   2.0000      -2.122970       -57.7690 
  43   2.0000      -2.118923       -57.6588 
  44   2.0000      -1.062622       -28.9154 
  45   2.0000      -1.038665       -28.2635 
  46   2.0000      -1.024209       -27.8702 
  47   2.0000      -1.022685       -27.8287 
  48   2.0000      -0.960067       -26.1247 
  49   2.0000      -0.949796       -25.8453 
  50   2.0000      -0.933506       -25.4020 
  51   2.0000      -0.926574       -25.2134 
  52   2.0000      -0.924744       -25.1636 
  53   2.0000      -0.920046       -25.0357 
  54   2.0000      -0.919530       -25.0217 
  55   2.0000      -0.916868       -24.9493 
  56   2.0000      -0.914286       -24.8790 
  57   2.0000      -0.913263       -24.8512 
  58   2.0000      -0.830943       -22.6111 
  59   2.0000      -0.812529       -22.1100 
  60   2.0000      -0.770776       -20.9739 
  61   2.0000      -0.764438       -20.8014 
  62   2.0000      -0.762582       -20.7509 
  63   2.0000      -0.760719       -20.7002 
  64   2.0000      -0.755604       -20.5610 
  65   2.0000      -0.751839       -20.4586 
  66   2.0000      -0.723212       -19.6796 
  67   2.0000      -0.704117       -19.1600 
  68   2.0000      -0.699814       -19.0429 
  69   2.0000      -0.698397       -19.0043 
  70   2.0000      -0.667830       -18.1726 
  71   2.0000      -0.641555       -17.4576 
  72   2.0000      -0.604067       -16.4375 
  73   2.0000      -0.598343       -16.2817 
  74   2.0000      -0.593970       -16.1627 
  75   2.0000      -0.588411       -16.0115 
  76   2.0000      -0.579143       -15.7593 
  77   2.0000      -0.561641       -15.2830 
  78   2.0000      -0.561024       -15.2663 
  79   2.0000      -0.559305       -15.2195 
  80   2.0000      -0.557069       -15.1586 
  81   2.0000      -0.552681       -15.0392 
  82   2.0000      -0.551870       -15.0171 
  83   2.0000      -0.546150       -14.8615 
  84   2.0000      -0.542968       -14.7749 
  85   2.0000      -0.541908       -14.7461 
  86   2.0000      -0.535330       -14.5671 
  87   2.0000      -0.525893       -14.3103 
  88   2.0000      -0.496526       -13.5112 
  89   2.0000      -0.490081       -13.3358 
  90   2.0000      -0.488977       -13.3057 
  91   2.0000      -0.487025       -13.2526 
  92   2.0000      -0.484663       -13.1884 
  93   2.0000      -0.483883       -13.1671 
  94   2.0000      -0.481663       -13.1067 
  95   2.0000      -0.471242       -12.8231 
  96   2.0000      -0.470026       -12.7901 
  97   2.0000      -0.461485       -12.5576 
  98   2.0000      -0.457869       -12.4593 
  99   2.0000      -0.455305       -12.3895 
 100   2.0000      -0.451428       -12.2840 
 101   2.0000      -0.450118       -12.2483 
 102   2.0000      -0.445122       -12.1124 
 103   2.0000      -0.444163       -12.0863 
 104   2.0000      -0.438477       -11.9316 
 105   2.0000      -0.436982       -11.8909 
 106   2.0000      -0.434385       -11.8202 
 107   2.0000      -0.428281       -11.6541 
 108   2.0000      -0.426575       -11.6077 
 109   2.0000      -0.422801       -11.5050 
 110   2.0000      -0.419507       -11.4154 
 111   2.0000      -0.415242       -11.2993 
 112   2.0000      -0.413258       -11.2453 
 113   2.0000      -0.400200       -10.8900 
 114   2.0000      -0.396775       -10.7968 
 115   2.0000      -0.395743       -10.7687 
 116   2.0000      -0.386417       -10.5149 
 117   2.0000      -0.375233       -10.2106 
 118   2.0000      -0.371161       -10.0998 
 119   2.0000      -0.369525       -10.0553 
 120   2.0000      -0.367471        -9.9994 
 121   2.0000      -0.363553        -9.8928 
 122   2.0000      -0.344750        -9.3811 
 123   2.0000      -0.327108        -8.9011 
 124   2.0000      -0.322110        -8.7650 
 125   2.0000      -0.298950        -8.1348 
 126   2.0000      -0.271796        -7.3959 
 127   0.0000      -0.008955        -0.2437 
 128   0.0000       0.025701         0.6994 
 129   0.0000       0.032339         0.8800 
 130   0.0000       0.039667         1.0794 
 131   0.0000       0.044627         1.2144 
 132   0.0000       0.046001         1.2518 
 133   0.0000       0.048091         1.3086 
 134   0.0000       0.054350         1.4789 
 135   0.0000       0.056231         1.5301 
 136   0.0000       0.058367         1.5882 
 137   0.0000       0.060211         1.6384 
 138   0.0000       0.063728         1.7341 
 139   0.0000       0.064902         1.7661 
 140   0.0000       0.069599         1.8939 
 141   0.0000       0.072427         1.9708 
 142   0.0000       0.079159         2.1540 
 143   0.0000       0.080384         2.1874 
 144   0.0000       0.083411         2.2697 
 145   0.0000       0.084595         2.3019 
 146   0.0000       0.086628         2.3573 
 147   0.0000       0.088613         2.4113 
 148   0.0000       0.092392         2.5141 
 149   0.0000       0.100847         2.7442 
 150   0.0000       0.104032         2.8308 
 151   0.0000       0.107203         2.9171 
 152   0.0000       0.108413         2.9501 
 153   0.0000       0.110375         3.0035 
 154   0.0000       0.112960         3.0738 
 155   0.0000       0.119182         3.2431 
 156   0.0000       0.122378         3.3301 
 157   0.0000       0.124059         3.3758 
 158   0.0000       0.127207         3.4615 
 159   0.0000       0.129159         3.5146 
 160   0.0000       0.132094         3.5945 
 161   0.0000       0.134610         3.6629 
 162   0.0000       0.137955         3.7539 
 163   0.0000       0.140375         3.8198 
 164   0.0000       0.141741         3.8570 
 165   0.0000       0.145140         3.9495 
 166   0.0000       0.148868         4.0509 
 167   0.0000       0.149528         4.0689 
 168   0.0000       0.154518         4.2047 
 169   0.0000       0.157980         4.2989 
 170   0.0000       0.160053         4.3553 
 171   0.0000       0.161561         4.3963 
 172   0.0000       0.164563         4.4780 
 173   0.0000       0.166504         4.5308 
 174   0.0000       0.171246         4.6598 
 175   0.0000       0.172412         4.6916 
 176   0.0000       0.173895         4.7319 
 177   0.0000       0.178115         4.8468 
 178   0.0000       0.179563         4.8862 
 179   0.0000       0.182648         4.9701 
 180   0.0000       0.183446         4.9918 
 181   0.0000       0.186190         5.0665 
 182   0.0000       0.189186         5.1480 
 183   0.0000       0.191277         5.2049 
 184   0.0000       0.193339         5.2610 
 185   0.0000       0.198264         5.3950 
 186   0.0000       0.202191         5.5019 
 187   0.0000       0.204236         5.5575 
 188   0.0000       0.205465         5.5910 
 189   0.0000       0.207743         5.6530 
 190   0.0000       0.215381         5.8608 
 191   0.0000       0.217805         5.9268 
 192   0.0000       0.218404         5.9431 
 193   0.0000       0.219803         5.9811 
 194   0.0000       0.221791         6.0352 
 195   0.0000       0.224391         6.1060 
 196   0.0000       0.225281         6.1302 
 197   0.0000       0.228078         6.2063 
 198   0.0000       0.230233         6.2649 
 199   0.0000       0.232661         6.3310 
 200   0.0000       0.233952         6.3662 
 201   0.0000       0.235372         6.4048 
 202   0.0000       0.237650         6.4668 
 203   0.0000       0.241009         6.5582 
 204   0.0000       0.243969         6.6387 
 205   0.0000       0.245236         6.6732 
 206   0.0000       0.245622         6.6837 
 207   0.0000       0.248646         6.7660 
 208   0.0000       0.250518         6.8169 
 209   0.0000       0.251790         6.8516 
 210   0.0000       0.255860         6.9623 
 211   0.0000       0.257095         6.9959 
 212   0.0000       0.259140         7.0515 
 213   0.0000       0.260615         7.0917 
 214   0.0000       0.262818         7.1516 
 215   0.0000       0.265503         7.2247 
 216   0.0000       0.266248         7.2450 
 217   0.0000       0.267729         7.2853 
 218   0.0000       0.268606         7.3091 
 219   0.0000       0.270128         7.3506 
 220   0.0000       0.271514         7.3883 
 221   0.0000       0.272974         7.4280 
 222   0.0000       0.275213         7.4889 
 223   0.0000       0.277722         7.5572 
 224   0.0000       0.278401         7.5757 
 225   0.0000       0.279440         7.6039 
 226   0.0000       0.282103         7.6764 
 227   0.0000       0.283176         7.7056 
 228   0.0000       0.284976         7.7546 
 229   0.0000       0.286324         7.7913 
 230   0.0000       0.286845         7.8055 
 231   0.0000       0.288760         7.8576 
 232   0.0000       0.289615         7.8808 
 233   0.0000       0.291380         7.9289 
 234   0.0000       0.295783         8.0487 
 235   0.0000       0.296705         8.0738 
 236   0.0000       0.297457         8.0942 
 237   0.0000       0.300839         8.1862 
 238   0.0000       0.302314         8.2264 
 239   0.0000       0.303880         8.2690 
 240   0.0000       0.306719         8.3463 
 241   0.0000       0.309098         8.4110 
 242   0.0000       0.309962         8.4345 
 243   0.0000       0.311299         8.4709 
 244   0.0000       0.313169         8.5218 
 245   0.0000       0.314727         8.5642 
 246   0.0000       0.316045         8.6000 
 247   0.0000       0.318367         8.6632 
 248   0.0000       0.319191         8.6856 
 249   0.0000       0.321834         8.7575 
 250   0.0000       0.323372         8.7994 
 251   0.0000       0.325133         8.8473 
 252   0.0000       0.326074         8.8729 
 253   0.0000       0.329395         8.9633 
 254   0.0000       0.330333         8.9888 
 255   0.0000       0.333198         9.0668 
 256   0.0000       0.334360         9.0984 
 257   0.0000       0.335190         9.1210 
 258   0.0000       0.336736         9.1630 
 259   0.0000       0.339286         9.2324 
 260   0.0000       0.341929         9.3044 
 261   0.0000       0.345193         9.3932 
 262   0.0000       0.346895         9.4395 
 263   0.0000       0.348011         9.4699 
 264   0.0000       0.350017         9.5244 
 265   0.0000       0.351983         9.5779 
 266   0.0000       0.352375         9.5886 
 267   0.0000       0.354843         9.6558 
 268   0.0000       0.357669         9.7327 
 269   0.0000       0.359396         9.7797 
 270   0.0000       0.361744         9.8436 
 271   0.0000       0.363647         9.8953 
 272   0.0000       0.364572         9.9205 
 273   0.0000       0.366619         9.9762 
 274   0.0000       0.369393        10.0517 
 275   0.0000       0.369588        10.0570 
 276   0.0000       0.373331        10.1589 
 277   0.0000       0.373576        10.1655 
 278   0.0000       0.374265        10.1843 
 279   0.0000       0.375140        10.2081 
 280   0.0000       0.377818        10.2809 
 281   0.0000       0.379129        10.3166 
 282   0.0000       0.381716        10.3870 
 283   0.0000       0.381856        10.3908 
 284   0.0000       0.383397        10.4328 
 285   0.0000       0.385295        10.4844 
 286   0.0000       0.385679        10.4949 
 287   0.0000       0.386735        10.5236 
 288   0.0000       0.388179        10.5629 
 289   0.0000       0.390826        10.6349 
 290   0.0000       0.392154        10.6711 
 291   0.0000       0.394847        10.7443 
 292   0.0000       0.396009        10.7760 
 293   0.0000       0.397283        10.8106 
 294   0.0000       0.399011        10.8576 
 295   0.0000       0.401617        10.9285 
 296   0.0000       0.403113        10.9693 
 297   0.0000       0.404499        11.0070 
 298   0.0000       0.406063        11.0495 
 299   0.0000       0.407277        11.0826 
 300   0.0000       0.410422        11.1681 
 301   0.0000       0.410542        11.1714 
 302   0.0000       0.412070        11.2130 
 303   0.0000       0.414599        11.2818 
 304   0.0000       0.415707        11.3120 
 305   0.0000       0.417548        11.3621 
 306   0.0000       0.418124        11.3777 
 307   0.0000       0.420850        11.4519 
 308   0.0000       0.421713        11.4754 
 309   0.0000       0.423459        11.5229 
 310   0.0000       0.425379        11.5752 
 311   0.0000       0.426233        11.5984 
 312   0.0000       0.427285        11.6270 
 313   0.0000       0.429039        11.6748 
 314   0.0000       0.433981        11.8092 
 315   0.0000       0.434864        11.8333 
 316   0.0000       0.436940        11.8897 
 317   0.0000       0.437692        11.9102 
 318   0.0000       0.438779        11.9398 
 319   0.0000       0.442241        12.0340 
 320   0.0000       0.442664        12.0455 
 321   0.0000       0.444624        12.0988 
 322   0.0000       0.445399        12.1199 
 323   0.0000       0.448920        12.2157 
 324   0.0000       0.450359        12.2549 
 325   0.0000       0.452164        12.3040 
 326   0.0000       0.453941        12.3524 
 327   0.0000       0.456508        12.4222 
 328   0.0000       0.457719        12.4552 
 329   0.0000       0.461522        12.5587 
 330   0.0000       0.461595        12.5606 
 331   0.0000       0.462670        12.5899 
 332   0.0000       0.465070        12.6552 
 333   0.0000       0.467081        12.7099 
 334   0.0000       0.468325        12.7438 
 335   0.0000       0.470313        12.7979 
 336   0.0000       0.472624        12.8607 
 337   0.0000       0.474538        12.9128 
 338   0.0000       0.476210        12.9583 
 339   0.0000       0.476922        12.9777 
 340   0.0000       0.479897        13.0587 
 341   0.0000       0.481656        13.1065 
 342   0.0000       0.486168        13.2293 
 343   0.0000       0.487537        13.2665 
 344   0.0000       0.488460        13.2917 
 345   0.0000       0.491060        13.3624 
 346   0.0000       0.492315        13.3966 
 347   0.0000       0.497226        13.5302 
 348   0.0000       0.498459        13.5638 
 349   0.0000       0.500099        13.6084 
 350   0.0000       0.501465        13.6455 
 351   0.0000       0.502603        13.6765 
 352   0.0000       0.504448        13.7267 
 353   0.0000       0.506888        13.7931 
 354   0.0000       0.508764        13.8442 
 355   0.0000       0.510884        13.9019 
 356   0.0000       0.514744        14.0069 
 357   0.0000       0.516924        14.0662 
 358   0.0000       0.518252        14.1024 
 359   0.0000       0.519457        14.1351 
 360   0.0000       0.522108        14.2073 
 361   0.0000       0.523933        14.2569 
 362   0.0000       0.525381        14.2963 
 363   0.0000       0.526039        14.3142 
 364   0.0000       0.528609        14.3842 
 365   0.0000       0.530412        14.4332 
 366   0.0000       0.535040        14.5592 
 367   0.0000       0.535905        14.5827 
 368   0.0000       0.536728        14.6051 
 369   0.0000       0.539185        14.6720 
 370   0.0000       0.543652        14.7935 
 371   0.0000       0.544480        14.8161 
 372   0.0000       0.546513        14.8714 
 373   0.0000       0.549544        14.9539 
 374   0.0000       0.551891        15.0177 
 375   0.0000       0.552372        15.0308 
 376   0.0000       0.553286        15.0557 
 377   0.0000       0.554699        15.0941 
 378   0.0000       0.556999        15.1567 
 379   0.0000       0.558987        15.2108 
 380   0.0000       0.559548        15.2261 
 381   0.0000       0.561711        15.2849 
 382   0.0000       0.564222        15.3533 
 383   0.0000       0.565095        15.3770 
 384   0.0000       0.567806        15.4508 
 385   0.0000       0.570700        15.5295 
 386   0.0000       0.571639        15.5551 
 387   0.0000       0.575126        15.6500 
 388   0.0000       0.575655        15.6644 
 389   0.0000       0.577917        15.7259 
 390   0.0000       0.581152        15.8140 
 391   0.0000       0.583374        15.8744 
 392   0.0000       0.584549        15.9064 
 393   0.0000       0.587364        15.9830 
 394   0.0000       0.589237        16.0340 
 395   0.0000       0.590474        16.0676 
 396   0.0000       0.592339        16.1184 
 397   0.0000       0.595475        16.2037 
 398   0.0000       0.598250        16.2792 
 399   0.0000       0.598854        16.2956 
 400   0.0000       0.603635        16.4257 
 401   0.0000       0.605503        16.4766 
 402   0.0000       0.607940        16.5429 
 403   0.0000       0.608750        16.5649 
 404   0.0000       0.610711        16.6183 
 405   0.0000       0.612647        16.6710 
 406   0.0000       0.614936        16.7332 
 407   0.0000       0.616569        16.7777 
 408   0.0000       0.619988        16.8707 
 409   0.0000       0.621115        16.9014 
 410   0.0000       0.622629        16.9426 
 411   0.0000       0.625159        17.0114 
 412   0.0000       0.626668        17.0525 
 413   0.0000       0.629210        17.1217 
 414   0.0000       0.631240        17.1769 
 415   0.0000       0.632742        17.2178 
 416   0.0000       0.637357        17.3434 
 417   0.0000       0.637953        17.3596 
 418   0.0000       0.638504        17.3746 
 419   0.0000       0.641312        17.4510 
 420   0.0000       0.641826        17.4650 
 421   0.0000       0.646493        17.5920 
 422   0.0000       0.648245        17.6396 
 423   0.0000       0.649682        17.6787 
 424   0.0000       0.652090        17.7443 
 425   0.0000       0.654057        17.7978 
 426   0.0000       0.655306        17.8318 
 427   0.0000       0.656802        17.8725 
 428   0.0000       0.660710        17.9788 
 429   0.0000       0.661103        17.9895 
 430   0.0000       0.662903        18.0385 
 431   0.0000       0.666477        18.1358 
 432   0.0000       0.670043        18.2328 
 433   0.0000       0.672254        18.2930 
 434   0.0000       0.674948        18.3663 
 435   0.0000       0.675824        18.3901 
 436   0.0000       0.676866        18.4185 
 437   0.0000       0.678559        18.4645 
 438   0.0000       0.679255        18.4835 
 439   0.0000       0.683435        18.5972 
 440   0.0000       0.687588        18.7102 
 441   0.0000       0.689181        18.7536 
 442   0.0000       0.692227        18.8365 
 443   0.0000       0.693705        18.8767 
 444   0.0000       0.696235        18.9455 
 445   0.0000       0.697832        18.9890 
 446   0.0000       0.701254        19.0821 
 447   0.0000       0.702308        19.1108 
 448   0.0000       0.704953        19.1828 
 449   0.0000       0.706447        19.2234 
 450   0.0000       0.708584        19.2815 
 451   0.0000       0.709249        19.2996 
 452   0.0000       0.711882        19.3713 
 453   0.0000       0.715484        19.4693 
 454   0.0000       0.717859        19.5339 
 455   0.0000       0.720891        19.6164 
 456   0.0000       0.721781        19.6407 
 457   0.0000       0.723872        19.6975 
 458   0.0000       0.724099        19.7037 
 459   0.0000       0.725872        19.7520 
 460   0.0000       0.728686        19.8286 
 461   0.0000       0.730618        19.8811 
 462   0.0000       0.733490        19.9593 
 463   0.0000       0.733893        19.9702 
 464   0.0000       0.736335        20.0367 
 465   0.0000       0.737587        20.0708 
 466   0.0000       0.738533        20.0965 
 467   0.0000       0.739793        20.1308 
 468   0.0000       0.741257        20.1706 
 469   0.0000       0.742075        20.1929 
 470   0.0000       0.743527        20.2324 
 471   0.0000       0.745531        20.2869 
 472   0.0000       0.748685        20.3727 
 473   0.0000       0.750311        20.4170 
 474   0.0000       0.753362        20.5000 
 475   0.0000       0.754597        20.5336 
 476   0.0000       0.754943        20.5431 
 477   0.0000       0.756090        20.5743 
 478   0.0000       0.757219        20.6050 
 479   0.0000       0.760282        20.6883 
 480   0.0000       0.761758        20.7285 
 481   0.0000       0.763954        20.7883 
 482   0.0000       0.766206        20.8495 
 483   0.0000       0.769011        20.9259 
 484   0.0000       0.769535        20.9401 
 485   0.0000       0.770618        20.9696 
 486   0.0000       0.772428        21.0188 
 487   0.0000       0.774517        21.0757 
 488   0.0000       0.777825        21.1657 
 489   0.0000       0.781202        21.2576 
 490   0.0000       0.785201        21.3664 
 491   0.0000       0.785790        21.3824 
 492   0.0000       0.786089        21.3906 
 493   0.0000       0.787363        21.4252 
 494   0.0000       0.789358        21.4795 
 495   0.0000       0.791590        21.5403 
 496   0.0000       0.793973        21.6051 
 497   0.0000       0.794899        21.6303 
 498   0.0000       0.797024        21.6881 
 499   0.0000       0.799201        21.7474 
 500   0.0000       0.801786        21.8177 
 501   0.0000       0.802046        21.8248 
 502   0.0000       0.804310        21.8864 
 503   0.0000       0.804970        21.9044 
 504   0.0000       0.807933        21.9850 
 505   0.0000       0.810183        22.0462 
 506   0.0000       0.812556        22.1108 
 507   0.0000       0.814279        22.1576 
 508   0.0000       0.815884        22.2013 
 509   0.0000       0.818470        22.2717 
 510   0.0000       0.819711        22.3055 
 511   0.0000       0.820828        22.3359 
 512   0.0000       0.822551        22.3827 
 513   0.0000       0.823511        22.4089 
 514   0.0000       0.827420        22.5152 
 515   0.0000       0.828975        22.5576 
 516   0.0000       0.831440        22.6246 
 517   0.0000       0.833502        22.6807 
 518   0.0000       0.835212        22.7273 
 519   0.0000       0.835624        22.7385 
 520   0.0000       0.840099        22.8603 
 521   0.0000       0.841716        22.9043 
 522   0.0000       0.843129        22.9427 
 523   0.0000       0.845063        22.9953 
 524   0.0000       0.848543        23.0900 
 525   0.0000       0.849707        23.1217 
 526   0.0000       0.851924        23.1820 
 527   0.0000       0.854694        23.2574 
 528   0.0000       0.855188        23.2708 
 529   0.0000       0.855705        23.2849 
 530   0.0000       0.857028        23.3209 
 531   0.0000       0.861522        23.4432 
 532   0.0000       0.862540        23.4709 
 533   0.0000       0.864000        23.5106 
 534   0.0000       0.866664        23.5831 
 535   0.0000       0.870393        23.6846 
 536   0.0000       0.872687        23.7470 
 537   0.0000       0.874318        23.7914 
 538   0.0000       0.877445        23.8765 
 539   0.0000       0.880334        23.9551 
 540   0.0000       0.880650        23.9637 
 541   0.0000       0.884539        24.0695 
 542   0.0000       0.887127        24.1400 
 543   0.0000       0.889153        24.1951 
 544   0.0000       0.890744        24.2384 
 545   0.0000       0.895731        24.3741 
 546   0.0000       0.896322        24.3902 
 547   0.0000       0.897610        24.4252 
 548   0.0000       0.899703        24.4822 
 549   0.0000       0.903140        24.5757 
 550   0.0000       0.905267        24.6336 
 551   0.0000       0.906055        24.6550 
 552   0.0000       0.907554        24.6958 
 553   0.0000       0.911266        24.7968 
 554   0.0000       0.913109        24.8470 
 555   0.0000       0.915072        24.9004 
 556   0.0000       0.917281        24.9605 
 557   0.0000       0.919623        25.0242 
 558   0.0000       0.920740        25.0546 
 559   0.0000       0.924125        25.1467 
 560   0.0000       0.925003        25.1706 
 561   0.0000       0.928459        25.2646 
 562   0.0000       0.931826        25.3563 
 563   0.0000       0.934255        25.4224 
 564   0.0000       0.937863        25.5206 
 565   0.0000       0.941788        25.6274 
 566   0.0000       0.943952        25.6862 
 567   0.0000       0.944703        25.7067 
 568   0.0000       0.947204        25.7747 
 569   0.0000       0.948493        25.8098 
 570   0.0000       0.952541        25.9200 
 571   0.0000       0.956683        26.0327 
 572   0.0000       0.960681        26.1414 
 573   0.0000       0.965202        26.2645 
 574   0.0000       0.966201        26.2917 
 575   0.0000       0.970371        26.4051 
 576   0.0000       0.971627        26.4393 
 577   0.0000       0.972704        26.4686 
 578   0.0000       0.977806        26.6075 
 579   0.0000       0.978835        26.6354 
 580   0.0000       0.981243        26.7010 
 581   0.0000       0.983072        26.7508 
 582   0.0000       0.985363        26.8131 
 583   0.0000       0.991621        26.9834 
 584   0.0000       0.993133        27.0245 
 585   0.0000       0.995388        27.0859 
 586   0.0000       0.998742        27.1772 
 587   0.0000       1.001112        27.2417 
 588   0.0000       1.003463        27.3056 
 589   0.0000       1.007985        27.4287 
 590   0.0000       1.010153        27.4877 
 591   0.0000       1.011880        27.5346 
 592   0.0000       1.016968        27.6731 
 593   0.0000       1.018894        27.7255 
 594   0.0000       1.020069        27.7575 
 595   0.0000       1.023112        27.8403 
 596   0.0000       1.025315        27.9002 
 597   0.0000       1.030359        28.0375 
 598   0.0000       1.030823        28.0501 
 599   0.0000       1.033561        28.1246 
 600   0.0000       1.035156        28.1680 
 601   0.0000       1.037863        28.2417 
 602   0.0000       1.039912        28.2974 
 603   0.0000       1.045178        28.4407 
 604   0.0000       1.048313        28.5260 
 605   0.0000       1.049307        28.5531 
 606   0.0000       1.051439        28.6111 
 607   0.0000       1.054801        28.7026 
 608   0.0000       1.056986        28.7621 
 609   0.0000       1.061142        28.8751 
 610   0.0000       1.063031        28.9266 
 611   0.0000       1.064409        28.9640 
 612   0.0000       1.069114        29.0921 
 613   0.0000       1.071380        29.1537 
 614   0.0000       1.075490        29.2656 
 615   0.0000       1.077829        29.3292 
 616   0.0000       1.081397        29.4263 
 617   0.0000       1.081909        29.4402 
 618   0.0000       1.083606        29.4864 
 619   0.0000       1.086336        29.5607 
 620   0.0000       1.092196        29.7202 
 621   0.0000       1.094600        29.7856 
[...]
      dx2y2   :     0.008848
      dxy     :     0.008236
 67 H s       :     0.710598  s :     0.710598
      pz      :     0.074053  p :     0.260631
      px      :     0.122348
      py      :     0.064230
      dz2     :     0.002735  d :     0.027764
      dxz     :     0.007641
      dyz     :     0.000151
      dx2y2   :     0.008418
      dxy     :     0.008819


                      *****************************
                      * MAYER POPULATION ANALYSIS *
                      *****************************

  NA   - Mulliken gross atomic population
  ZA   - Total nuclear charge
  QA   - Mulliken gross atomic charge
  VA   - Mayer's total valence
  BVA  - Mayer's bonded valence
  FA   - Mayer's free valence

  ATOM       NA         ZA         QA         VA         BVA        FA
  0 Ru    17.6851    16.0000    -1.6851     5.0235     5.0235    -0.0000
  1 Cl    17.6722    17.0000    -0.6722     0.6451     0.6451    -0.0000
  2 Cl    17.6732    17.0000    -0.6732     0.6286     0.6286    -0.0000
  3 P     14.2923    15.0000     0.7077     0.6168     0.6168     0.0000
  4 C      4.4452     6.0000     1.5548     1.1145     1.1145     0.0000
  5 C      5.6215     6.0000     0.3785     5.2741     5.2741    -0.0000
  6 C      6.3030     6.0000    -0.3030     4.5297     4.5297    -0.0000
  7 C      6.3262     6.0000    -0.3262     4.2098     4.2098     0.0000
  8 C      6.1963     6.0000    -0.1963     4.3054     4.3054     0.0000
  9 C      6.3970     6.0000    -0.3970     4.2109     4.2109     0.0000
 10 C      5.6591     6.0000     0.3409     3.4866     3.4866     0.0000
 11 C      5.5719     6.0000     0.4281     5.0697     5.0697     0.0000
 12 C      6.1012     6.0000    -0.1012     4.0680     4.0680    -0.0000
 13 C      6.3168     6.0000    -0.3168     4.3655     4.3655     0.0000
 14 C      6.1624     6.0000    -0.1624     4.3023     4.3023     0.0000
 15 C      6.3644     6.0000    -0.3644     4.3024     4.3024     0.0000
 16 C      5.5609     6.0000     0.4391     3.7765     3.7765     0.0000
 17 C      5.4429     6.0000     0.5571     4.6221     4.6221     0.0000
 18 C      5.6427     6.0000     0.3573     3.7637     3.7637    -0.0000
 19 C      6.2419     6.0000    -0.2419     4.2216     4.2216    -0.0000
 20 C      6.2503     6.0000    -0.2503     4.3589     4.3589     0.0000
 21 C      6.2828     6.0000    -0.2828     4.2379     4.2379     0.0000
 22 C      6.3236     6.0000    -0.3236     4.7630     4.7630    -0.0000
 23 H      0.9744     1.0000     0.0256     0.7479     0.7479    -0.0000
 24 H      0.5085     1.0000     0.4915     0.1632     0.1632    -0.0000
 25 H      0.9183     1.0000     0.0817     0.8139     0.8139    -0.0000
 26 H      0.9223     1.0000     0.0777     0.8671     0.8671    -0.0000
 27 H      0.9624     1.0000     0.0376     1.0292     1.0292     0.0000
 28 H      0.9097     1.0000     0.0903     0.9469     0.9469     0.0000
 29 H      0.9235     1.0000     0.0765     0.9591     0.9591    -0.0000
 30 H      0.9295     1.0000     0.0705     1.0378     1.0378     0.0000
 31 H      0.9558     1.0000     0.0442     1.0278     1.0278    -0.0000
 32 H      0.8934     1.0000     0.1066     0.9348     0.9348     0.0000
 33 H      1.2238     1.0000    -0.2238     1.0513     1.0513    -0.0000
 34 H      0.9439     1.0000     0.0561     0.6459     0.6459     0.0000
 35 H      0.3552     1.0000     0.6448    -0.0729    -0.0729     0.0000
 36 H      1.1536     1.0000    -0.1536     1.0777     1.0777    -0.0000
 37 H      0.8912     1.0000     0.1088     0.7144     0.7144    -0.0000
 38 H      0.9168     1.0000     0.0832     0.9540     0.9540     0.0000
 39 H      0.9675     1.0000     0.0325     1.0254     1.0254     0.0000
 40 H      0.9426     1.0000     0.0574     1.0383     1.0383     0.0000
 41 H      0.9452     1.0000     0.0548     0.9633     0.9633     0.0000
 42 H      0.9091     1.0000     0.0909     0.9496     0.9496     0.0000
 43 H      0.9578     1.0000     0.0422     1.0313     1.0313     0.0000
 44 H      0.9087     1.0000     0.0913     0.7115     0.7115    -0.0000
 45 H      1.4441     1.0000    -0.4441     0.9880     0.9880     0.0000
 46 H      0.5053     1.0000     0.4947     0.2205     0.2205     0.0000
 47 H      0.9458     1.0000     0.0542     0.7424     0.7424    -0.0000
 48 H      1.3852     1.0000    -0.3852     1.0596     1.0596    -0.0000
 49 H      0.9716     1.0000     0.0284     1.0382     1.0382     0.0000
 50 H      0.8782     1.0000     0.1218     0.9328     0.9328    -0.0000
 51 H      0.9250     1.0000     0.0750     0.9589     0.9589     0.0000
 52 H      0.9459     1.0000     0.0541     1.0455     1.0455     0.0000
 53 H      0.9747     1.0000     0.0253     1.0485     1.0485     0.0000
 54 H      0.9121     1.0000     0.0879     0.9538     0.9538    -0.0000
 55 H      0.8427     1.0000     0.1573     0.6523     0.6523    -0.0000
 56 H      0.9450     1.0000     0.0550     0.8129     0.8129    -0.0000
 57 C      5.8453     6.0000     0.1547     0.8385     0.8385     0.0000
 58 C      6.3162     6.0000    -0.3162     2.8628     2.8628    -0.0000
 59 C      6.1602     6.0000    -0.1602     3.1334     3.1334    -0.0000
 60 C      5.9405     6.0000     0.0595     3.1029     3.1029    -0.0000
 61 C      6.2760     6.0000    -0.2760     3.2505     3.2505    -0.0000
 62 C      5.9153     6.0000     0.0847     2.7911     2.7911    -0.0000
 63 H      1.1226     1.0000    -0.1226     0.9551     0.9551    -0.0000
 64 H      1.0502     1.0000    -0.0502     0.9009     0.9009    -0.0000
 65 H      1.0573     1.0000    -0.0573     0.9106     0.9106    -0.0000
 66 H      1.0793     1.0000    -0.0793     0.8318     0.8318    -0.0000
 67 H      1.0151     1.0000    -0.0151     0.8874     0.8874     0.0000

  Mayer bond orders larger than 0.100000
B(  0-Ru,  1-Cl) :   1.7015 B(  0-Ru,  2-Cl) :   1.6574 B(  0-Ru,  3-P ) :  -0.3168 
B(  0-Ru,  4-C ) :   1.5785 B(  0-Ru,  5-C ) :   0.2273 B(  0-Ru, 11-C ) :   0.2026 
B(  0-Ru, 22-C ) :   0.2042 B(  1-Cl,  3-P ) :  -0.8602 B(  1-Cl,  4-C ) :  -0.1075 
B(  1-Cl, 36-H ) :   0.1514 B(  1-Cl, 55-H ) :  -0.1369 B(  1-Cl, 57-C ) :  -0.2124 
B(  2-Cl,  3-P ) :  -0.6381 B(  2-Cl,  4-C ) :  -0.3253 B(  2-Cl, 46-H ) :  -0.1093 
B(  3-P ,  4-C ) :  -0.1075 B(  3-P ,  5-C ) :   0.6881 B(  3-P ,  6-C ) :   0.3348 
B(  3-P , 10-C ) :  -0.2770 B(  3-P , 11-C ) :   0.6617 B(  3-P , 12-C ) :   0.4985 
B(  3-P , 17-C ) :   0.5113 B(  3-P , 18-C ) :   0.2183 B(  3-P , 21-C ) :  -0.1454 
B(  3-P , 22-C ) :   0.2122 B(  3-P , 24-H ) :   0.2354 B(  3-P , 35-H ) :  -0.3458 
B(  3-P , 36-H ) :  -0.1414 B(  3-P , 48-H ) :   0.1051 B(  4-C , 23-H ) :   0.9245 
B(  4-C , 57-C ) :  -0.3730 B(  4-C , 58-C ) :  -0.5710 B(  4-C , 59-C ) :  -0.1831 
B(  4-C , 60-C ) :   0.1292 B(  4-C , 61-C ) :  -0.3465 B(  4-C , 62-C ) :   0.4352 
B(  4-C , 63-H ) :  -0.1041 B(  5-C ,  6-C ) :   1.4221 B(  5-C ,  7-C ) :   0.4192 
B(  5-C ,  8-C ) :   0.1370 B(  5-C ,  9-C ) :   0.4001 B(  5-C , 10-C ) :   1.2126 
B(  5-C , 17-C ) :   0.1237 B(  5-C , 24-H ) :   0.6244 B(  5-C , 34-H ) :  -0.1108 
B(  6-C ,  7-C ) :   0.8871 B(  6-C ,  8-C ) :   0.1150 B(  6-C ,  9-C ) :   0.1441 
B(  6-C , 17-C ) :   0.1280 B(  6-C , 24-H ) :  -0.2299 B(  6-C , 25-H ) :   0.9220 
B(  6-C , 26-H ) :   0.8282 B(  7-C ,  8-C ) :   1.0295 B(  7-C , 25-H ) :  -0.1622 
B(  7-C , 27-H ) :   1.0110 B(  7-C , 28-H ) :   0.9762 B(  8-C ,  9-C ) :   1.0575 
B(  8-C , 24-H ) :  -0.1030 B(  8-C , 29-H ) :   1.0006 B(  8-C , 30-H ) :   0.9987 
B(  9-C , 10-C ) :   0.7083 B(  9-C , 31-H ) :   0.9555 B(  9-C , 32-H ) :   0.9821 
B(  9-C , 33-H ) :   0.2442 B(  9-C , 34-H ) :  -0.2244 B( 10-C , 24-H ) :  -0.2275 
B( 10-C , 32-H ) :  -0.1316 B( 10-C , 33-H ) :   0.8560 B( 10-C , 34-H ) :   1.0432 
B( 11-C , 12-C ) :   0.8578 B( 11-C , 13-C ) :   0.4369 B( 11-C , 15-C ) :   0.3993 
B( 11-C , 16-C ) :   1.4140 B( 11-C , 17-C ) :   0.2184 B( 11-C , 35-H ) :   0.7841 
B( 11-C , 37-H ) :  -0.1043 B( 12-C , 13-C ) :   0.9371 B( 12-C , 14-C ) :   0.1231 
B( 12-C , 35-H ) :  -0.1506 B( 12-C , 36-H ) :   0.8502 B( 12-C , 37-H ) :   0.9931 
B( 13-C , 14-C ) :   1.0495 B( 13-C , 15-C ) :   0.1210 B( 13-C , 16-C ) :   0.1150 
B( 13-C , 37-H ) :  -0.1192 B( 13-C , 38-H ) :   0.9815 B( 13-C , 39-H ) :   0.9601 
B( 14-C , 15-C ) :   1.0421 B( 14-C , 40-H ) :   1.0000 B( 14-C , 41-H ) :   1.0046 
B( 15-C , 16-C ) :   0.8107 B( 15-C , 42-H ) :   0.9451 B( 15-C , 43-H ) :   0.9753 
B( 15-C , 44-H ) :  -0.1764 B( 15-C , 45-H ) :   0.2752 B( 16-C , 17-C ) :   0.1064 
B( 16-C , 35-H ) :  -0.2633 B( 16-C , 44-H ) :   1.0169 B( 16-C , 45-H ) :   0.7017 
B( 17-C , 18-C ) :   1.0348 B( 17-C , 19-C ) :   0.3697 B( 17-C , 21-C ) :   0.3333 
B( 17-C , 22-C ) :   1.1261 B( 17-C , 46-H ) :   0.9034 B( 17-C , 47-H ) :  -0.1168 
B( 18-C , 19-C ) :   0.8682 B( 18-C , 20-C ) :   0.1918 B( 18-C , 46-H ) :  -0.1405 
B( 18-C , 47-H ) :   1.0475 B( 18-C , 48-H ) :   0.7980 B( 19-C , 20-C ) :   1.0394 
B( 19-C , 47-H ) :  -0.1684 B( 19-C , 48-H ) :   0.1829 B( 19-C , 49-H ) :   0.9666 
B( 19-C , 50-H ) :   0.9696 B( 20-C , 21-C ) :   0.9972 B( 20-C , 22-C ) :   0.1676 
B( 20-C , 51-H ) :   1.0123 B( 20-C , 52-H ) :   0.9899 B( 21-C , 22-C ) :   1.1376 
B( 21-C , 53-H ) :   0.9884 B( 21-C , 54-H ) :   0.9733 B( 21-C , 56-H ) :  -0.1091 
B( 22-C , 46-H ) :  -0.2309 B( 22-C , 55-H ) :   0.8106 B( 22-C , 56-H ) :   1.0338 
B( 57-C , 58-C ) :   1.3099 B( 57-C , 59-C ) :   0.1202 B( 57-C , 60-C ) :  -0.1459 
B( 57-C , 61-C ) :   0.1619 B( 57-C , 62-C ) :   0.2530 B( 57-C , 63-H ) :  -0.1124 
B( 57-C , 66-H ) :  -0.1822 B( 58-C , 59-C ) :   1.1712 B( 58-C , 62-C ) :  -0.2947 
B( 58-C , 63-H ) :   1.2958 B( 59-C , 60-C ) :   1.1433 B( 59-C , 63-H ) :  -0.1801 
B( 59-C , 64-H ) :   1.1223 B( 59-C , 67-H ) :  -0.1199 B( 60-C , 61-C ) :   1.1087 
B( 60-C , 64-H ) :  -0.1229 B( 60-C , 65-H ) :  -0.1218 B( 60-C , 67-H ) :   1.1142 
B( 61-C , 62-C ) :   1.3081 B( 61-C , 65-H ) :   1.1283 B( 61-C , 66-H ) :  -0.1103 
B( 61-C , 67-H ) :  -0.1176 B( 62-C , 66-H ) :   1.1327 

-------
TIMINGS
-------

Total SCF time: 0 days 0 hours 13 min 11 sec 

Total time                  ....     791.618 sec
Sum of individual times     ....     787.267 sec  ( 99.5%)

Fock matrix formation       ....     756.432 sec  ( 95.6%)
  XC integration            ....      32.399 sec  (  4.3% of F)
    Basis function eval.    ....       5.311 sec  ( 16.4% of XC)
    Density eval.           ....      14.924 sec  ( 46.1% of XC)
    XC-Functional eval.     ....       0.153 sec  (  0.5% of XC)
    XC-Potential eval.      ....       8.507 sec  ( 26.3% of XC)
Diagonalization             ....       8.644 sec  (  1.1%)
Density matrix formation    ....       0.616 sec  (  0.1%)
Population analysis         ....       1.073 sec  (  0.1%)
Initial guess               ....       5.461 sec  (  0.7%)
Orbital Transformation      ....       0.000 sec  (  0.0%)
Orbital Orthonormalization  ....       0.000 sec  (  0.0%)
DIIS solution               ....      11.825 sec  (  1.5%)
Grid generation             ....       3.216 sec  (  0.4%)


           ************************************************************
           *        Program running with 24 parallel MPI-processes    *
           *              working on a common directory               *
           ************************************************************

------------------------------------------------------------------------------
                                ORCA  MP2 
------------------------------------------------------------------------------

Freezing NCore=80 chemical core electrons

-------------
RI-MP2 ENERGY
-------------
Dimension of the basis                    ... 1794
Memory devoted to MP2                     ... 5000 MB   
Data format for buffers                   ... DOUBLE
Compression type for matrix containers    ... UNCOMPRESSED
Scaling for aa/bb pairs                   ...   4.000e-01
Scaling for ab pairs                      ...   4.700e-01
Overall scaling of the MP2 energy         ...   1.000e+00
Calculating two index integrals           ... done (    0.135 sec)
Cholesky decomposition of V**-1           ... done (    2.187 sec)

-----------------
RI-TRANSFORMATION (AUX index driven)
-----------------

Dimension of the orbital-basis         ... 1794
Dimension of the aux-basis             ... 4414
Transformation of internal/external MOs...   40- 126 to  127-1793
Number Format for Storage              ... Double (8 Byte)
Integral mode                          ... Direct

First Phase: integral generation and transformation of MO indices
  Aux angular momentum 0               ... done (    1.796 sec)
  Aux angular momentum 1               ... done (    3.462 sec)
  Aux angular momentum 2               ... done (    4.608 sec)
  Aux angular momentum 3               ... done (    3.543 sec)
  Aux angular momentum 4               ... done (    1.177 sec)
  Aux angular momentum 5               ... done (    0.772 sec)
  Aux angular momentum 6               ... done (    0.940 sec)
Closing buffer VIA ( 4.77 GB; CompressionRatio= 1.00)
  Phase 1 completed in    16.613 sec
Second Phase: sorting and transformation of aux index

IA-Transformation
Memory available                       ... 4593 MB 
Max. # MO pairs treated in a batch     ... 4    
# of internal orbitals                 ... 87
# batches for internal orbitals        ... 1
Closing buffer IAV ( 0.22 GB; CompressionRatio= 1.00)
(ia|v) transformation done in     6.024 sec

  Phase 2 completed in    12.814 sec
RI-Integral transformation completed in    29.555 sec
Opening buffers                              ... done

Starting loop over batches of integrals:

Operator 0  - window                       ... ( 40-126)x(127-1793)
Operator 0  - Memory available             ...  5000 MB
Operator 0  - Memory needed per MO         ...  56.1 MB
Operator 0  - Number of orbitals per batch ... 4
Operator 0  - Number of batches            ... 1

OPERATOR  0   PASS   0:  MOs    40 ...   43 +   44 ...   47 +   48 ...   51 +   52 ...   55
                            +   56 ...   59 +   60 ...   63 +   64 ...   67 +   68 ...   71
                            +   72 ...   75 +   76 ...   79 +   80 ...   83 +   84 ...   87
                            +   88 ...   91 +   92 ...   95 +   96 ...   99 +  100 ...  103
                            +  104 ...  107 +  108 ...  111 +  112 ...  115 +  116 ...  119
                            +  120 ...  123 +  124 ...  126
  Reading integrals       ... ok
  Internal MO  42
Time spent in pair loops =     4.950 sec
Deleting buffer (Ka|jb)[aa] ...done

-----------------------------------------------
 RI-MP2 CORRELATION ENERGY:     -2.813809198 Eh
-----------------------------------------------


-------
TIMINGS
-------

Total time                :  171.097 sec
Integral trafo            :   29.583 sec ( 17.3%)
I/O of integrals          :    0.284 sec (  0.2%)
K(i,j) Operators          :    3.976 sec (  2.3%)
T(i,j) pair energies      :    0.425 sec (  0.2%)
V-calculation             :    0.135 sec (  0.1%)
V**(-1/2)                 :    2.187 sec (  1.3%)
Gamma(ia|P)               :    0.000 sec (  0.0%)
Gamma-Trafo               :    0.000 sec (  0.0%)
D(virtual)                :    0.000 sec (  0.0%)
D(internal)               :    0.000 sec (  0.0%)
W(virtual)                :    0.000 sec (  0.0%)
W(internal)               :    0.000 sec (  0.0%)
L(virtual)                :    0.000 sec (  0.0%)
L(internal)               :    0.000 sec (  0.0%)
G(D)                      :    0.000 sec (  0.0%)
G(Z)                      :    0.000 sec (  0.0%)
Z-Vector Solution         :    0.000 sec (  0.0%)
Z-Vector Solution         :    0.000 sec (  0.0%)
3-Index Derivative 
+ Separable RIJ part      :    0.000 sec (  0.0%)
2-Index Derivative 
+ Separable RIJ part      :    0.000 sec (  0.0%)
Separable Gradient (X)    :    0.000 sec (  0.0%)


---------------------------------------
MP2 TOTAL ENERGY:    -2331.280987984 Eh
---------------------------------------


-------------------------------------------------------------------------------
                          DFT DISPERSION CORRECTION                            
                                                                               
                              DFTD3 V3.1  Rev 1                                
                          USING Becke-Johnson damping                          
-------------------------------------------------------------------------------
The DSD-BLYP/2013 functional is recognized
Active option DFTDOPT                   ...         4   

molecular C6(AA) [au] = 53101.588890 


            DFT-D V3
 parameters
 s6 scaling factor         :     0.5700 
 a1 scaling factor         :     0.0000 
 s8 scaling factor         :     0.0000 
 a2 scaling factor         :     5.4000 
 ad hoc parameters k1-k3   :    16.0000     1.3333    -4.0000 

 Edisp/kcal,au: -65.117449480982  -0.103771250039 
 E6   /kcal   : -65.117449481 
 E8   /kcal   :  -0.000000000 
 % E8         :   0.000000000 

-------------------------   ----------------
Dispersion correction           -0.103771250
-------------------------   ----------------


-------------------------   --------------------
FINAL SINGLE POINT ENERGY     -2331.384759234008
-------------------------   --------------------


                            ***************************************
                            *     ORCA property calculations      *
                            ***************************************


  WARNING: The energy has been calculated at the MP2 level but the densities
           used in the property calculations are still SCF densities
           MP2 response densities have not been calculated 
           use %mp2 Density relaxed end
           or  %mp2 Density unrelaxed end

                                    ---------------------
                                    Active property flags
                                    ---------------------
   (+) Dipole Moment


------------------------------------------------------------------------------
                       ORCA ELECTRIC PROPERTIES CALCULATION
------------------------------------------------------------------------------

Dipole Moment Calculation                       ... on
Quadrupole Moment Calculation                   ... off
Polarizability Calculation                      ... off
GBWName                                         ... MOR13_ed24.gbw
Electron density file                           ... MOR13_ed24.scfp
The origin for moment calculation is the CENTER OF MASS  = ( 0.178495, -0.123193 -0.110374)

-------------
DIPOLE MOMENT
-------------
                                X             Y             Z
Electronic contribution:     94.77143     -73.69675     -66.16593
Nuclear contribution   :    -95.45400      75.19378      67.48059
                        -----------------------------------------
Total Dipole Moment    :     -0.68257       1.49702       1.31466
                        -----------------------------------------
Magnitude (a.u.)       :      2.10602
Magnitude (Debye)      :      5.35308



--------------------
Rotational spectrum 
--------------------
 
Rotational constants in cm-1:     0.004948     0.003136     0.003087 
Rotational constants in MHz :   148.341837    94.004802    92.554473 

 Dipole components along the rotational axes: 
x,y,z [a.u.] :    -0.723795     1.560255    -1.215337 
x,y,z [Debye]:    -1.839740     3.965854    -3.089140 

 

Timings for individual modules:

Sum of individual times         ...      975.626 sec (=  16.260 min)
GTO integral calculation        ...       10.849 sec (=   0.181 min)   1.1 %
SCF iterations                  ...      792.175 sec (=  13.203 min)  81.2 %
MP2 module                      ...      172.602 sec (=   2.877 min)  17.7 %
                             ****ORCA TERMINATED NORMALLY****
TOTAL RUN TIME: 0 days 0 hours 16 minutes 16 seconds 664 msec
