
                                 *****************
                                 * O   R   C   A *
                                 *****************

           --- An Ab Initio, DFT and Semiempirical electronic structure package ---

                  #######################################################
                  #                        -***-                        #
                  #          Department of theory and spectroscopy      #
                  #               Directorship: Frank Neese             #
                  #        Max Planck Institute fuer Kohlenforschung    #
                  #                Kaiser Wilhelm Platz 1               #
                  #                 D-45470 Muelheim/Ruhr               #
                  #                      Germany                        #
                  #                                                     #
                  #                  All rights reserved                #
                  #                        -***-                        #
                  #######################################################


                         Program Version 4.2.0 -  RELEASE  -


 With contributions from (in alphabetic order):
   Daniel Aravena         : Magnetic Suceptibility
   Michael Atanasov       : Ab Initio Ligand Field Theory (pilot matlab implementation)
   Alexander A. Auer      : GIAO ZORA, VPT2
   Ute Becker             : Parallelization
   Giovanni Bistoni       : ED, misc. LED, open-shell LED, HFLED
   Martin Brehm           : Molecular dynamics
   Dmytro Bykov           : SCF Hessian
   Vijay G. Chilkuri      : MRCI spin determinant printing, contributions to CSF-ICE
   Dipayan Datta          : RHF DLPNO-CCSD density
   Achintya Kumar Dutta   : EOM-CC, STEOM-CC
   Dmitry Ganyushin       : Spin-Orbit,Spin-Spin,Magnetic field MRCI
   Miquel Garcia          : C-PCM Hessian, Gaussian charge scheme
   Yang Guo               : DLPNO-NEVPT2, CIM, IAO-localization
   Andreas Hansen         : Spin unrestricted coupled pair/coupled cluster methods
   Benjamin Helmich-Paris : CASSCF linear response (MC-RPA)
   Lee Huntington         : MR-EOM, pCC
   Robert Izsak           : Overlap fitted RIJCOSX, COSX-SCS-MP3, EOM
   Christian Kollmar      : KDIIS, OOCD, Brueckner-CCSD(T), CCSD density
   Simone Kossmann        : Meta GGA functionals, TD-DFT gradient, OOMP2, MP2 Hessian
   Martin Krupicka        : AUTO-CI
   Lucas Lang             : DCDCAS
   Dagmar Lenk            : GEPOL surface, SMD
   Dimitrios Liakos       : Extrapolation schemes; Compound Job, initial MDCI parallelization
   Dimitrios Manganas     : Further ROCIS development; embedding schemes
   Dimitrios Pantazis     : SARC Basis sets
   Taras Petrenko         : DFT Hessian,TD-DFT gradient, ASA, ECA, R-Raman, ABS, FL, XAS/XES, NRVS
   Peter Pinski           : DLPNO-MP2, DLPNO-MP2 Gradient
   Christoph Reimann      : Effective Core Potentials
   Marius Retegan         : Local ZFS, SOC
   Christoph Riplinger    : Optimizer, TS searches, QM/MM, DLPNO-CCSD(T), (RO)-DLPNO pert. Triples
   Tobias Risthaus        : Range-separated hybrids, TD-DFT gradient, RPA, STAB
   Michael Roemelt        : Original ROCIS implementation
   Masaaki Saitow         : Open-shell DLPNO-CCSD energy and density
   Barbara Sandhoefer     : DKH picture change effects
   Avijit Sen             : IP-ROCIS
   Kantharuban Sivalingam : CASSCF convergence, NEVPT2, FIC-MRCI
   Bernardo de Souza      : ESD, SOC TD-DFT
   Georgi Stoychev        : AutoAux, RI-MP2 NMR
   Willem Van den Heuvel  : Paramagnetic NMR
   Boris Wezisla          : Elementary symmetry handling
   Frank Wennmohs         : Technical directorship


 We gratefully acknowledge several colleagues who have allowed us to
 interface, adapt or use parts of their codes:
   Stefan Grimme, W. Hujo, H. Kruse,             : VdW corrections, initial TS optimization,
                  C. Bannwarth                     DFT functionals, gCP, sTDA/sTD-DF
   Ed Valeev, F. Pavosevic, A. Kumar             : LibInt (2-el integral package), F12 methods
   Garnet Chan, S. Sharma, J. Yang, R. Olivares  : DMRG
   Ulf Ekstrom                                   : XCFun DFT Library
   Mihaly Kallay                                 : mrcc  (arbitrary order and MRCC methods)
   Andreas Klamt, Michael Diedenhofen            : otool_cosmo (COSMO solvation model)
   Jiri Pittner, Ondrej Demel                    : Mk-CCSD
   Frank Weinhold                                : gennbo (NPA and NBO analysis)
   Christopher J. Cramer and Donald G. Truhlar   : smd solvation model
   Lars Goerigk                                  : TD-DFT with DH, B97 family of functionals
   V. Asgeirsson, H. Jonsson                     : NEB implementation
   FAccTs GmbH                                   : IRC, NEB, NEB-TS, Multilevel, MM, QM/MM, CI optimization
   S Lehtola, MJT Oliveira, MAL Marques          : LibXC Library


 Your calculation uses the libint2 library for the computation of 2-el integrals
 For citations please refer to: http://libint.valeyev.net

 Your ORCA version has been built with support for libXC version: 4.2.3
 For citations please refer to: https://tddft.org/programs/libxc/

 This ORCA versions uses:
   CBLAS   interface :  Fast vector & matrix operations
   LAPACKE interface :  Fast linear algebra routines
   SCALAPACK package :  Parallel linear algebra routines


Your calculation utilizes the atom-pairwise dispersion correction
with the Becke-Johnson damping scheme (D3BJ)
Cite in your paper:
S.Grimme, S.Ehrlich, L.Goerigk, J Comput Chem, (2011), 32, 1456–1465 
S.Grimme, J.Antony, S.Ehrlich and H.Krieg, J.Chem.Phys., 132, (2010), 154104 
   

----- Orbital basis set information -----
Your calculation utilizes the basis: def2-TZVPPD
   F. Weigend and R. Ahlrichs, Phys. Chem. Chem. Phys. 7, 3297 (2005).
   D. Rappoport and F. Furche, J. Chem. Phys. 133 134105 (2010).

----- AuxC basis set information -----
Your calculation utilizes the auxiliary basis: def2-TZVPPD/C
   A. Hellweg, C. Hattig, S. Hofener and W. Klopper, Theor. Chem. Acc. 117, 587 (2007).

----- AuxJK basis set information -----
Your calculation utilizes the auxiliary basis: def2/JK
   H-Ba, Hf-Rn: F. Weigend, J. Comput. Chem. 29, 167 (2008).

cite the ECPs for Pd [Def2-ECP], I  [Def2-ECP] as follows:
Ce-Yb(ecp-28): M. Dolg, H. Stoll, H.Preuss, J. Chem. Phys., 1989, 90, 1730-1734.
Y-Cd(ecp-28), Hf-Hg(ecp-46): D. Andrae,U. Haeussermann, M. Dolg, H. Stoll, H. Preuss, Theor. Chim. Acta, 1990, 77, 123-141.
In-Sb(ecp-28), Tl-Bi(ecp-46): B. Metz, H. Stoll, M. Dolg, J. Chem. Phys., 2000, 113, 2563-2569.
Te-Xe(ecp-28), Po-Rn(ecp-46): K. A. Peterson, D. Figgen, E. Goll, H. Stoll, M. Dolg, J. Chem. Phys., 2003, 119, 11113-11123.
Rb(ecp-28), Cs(ecp-46): T. Leininger, A. Nicklass, W. Kuechle, H. Stoll, M. Dolg, A. Bergner, Chem. Phys. Lett., 1996, 255, 274-280.
Sr(ecp-28), Ba(ecp-46): M. Kaupp, P. V. Schleyer, H. Stoll and H. Preuss, J. Chem. Phys., 1991, 94, 1360-1366.
La(ecp-46): M. Dolg, H. Stoll, A. Savin, H. Preuss, Theor. Chim. Acta, 1989, 75, 173-194.
Lu(ecp-28): X. Cao, M. Dolg, J. Chem. Phys., 2001, 115, 7348-7355.

ECP parameters for Pd [Def2-ECP], I  [Def2-ECP] have been obtained from:
TURBOMOLE (7.0.2)

================================================================================
                                        WARNINGS
                       Please study these warnings very carefully!
================================================================================


WARNING: No MP2 level density has been requested!
         To caclulate MP2 level properties use
         %mp2 Density relaxed end
         or
         %mp2 Density unrelaxed end
         Otherwise for double-hybrid DFT only the energy is correct!

WARNING: There are different parametrizations of Gershom Martin's DSD-DFs
         for use with and without D3(BJ)!
         You are using the D3(BJ) parametrized version,
         consistent with the 2013 article (S. Kozuch and J. M. L. Martin, JCC 2013, 34, 2327)

WARNING: The frozen-core approximation is turned on by default for 
         the MP2 part of double-hybrid DFT.

INFO   : the flag for use of LIBINT has been found!

================================================================================
                                       INPUT FILE
================================================================================
NAME = MOR11_ed11.in
|  1> #
|  2> # MOR11_ed11 ri-DSD-BLYP/2013-D3BJ/Def2-TZVPPD
|  3> #
|  4> ! rijk ri-dsd-blyp/2013 d3bj def2-tzvppd def2/jk def2-tzvppd/c grid4 nofinalgrid
|  5> 
|  6> *xyz 0 1
|  7> C       -0.215143    2.474912    0.000943 
|  8> C        0.405007    3.719049    0.001069 
|  9> C        1.797844    3.776033    0.000678 
| 10> C        2.518886    2.587780    0.000166 
| 11> H       -1.296303    2.357179    0.001183 
| 12> H       -0.198474    4.620568    0.001502 
| 13> H        2.316345    4.729851    0.000789 
| 14> H        3.602578    2.611029   -0.000041 
| 15> N        0.477795    1.324684    0.000439 
| 16> C        1.835277    1.367244    0.000057 
| 17> C        2.509992    0.059887   -0.000357 
| 18> N        1.694840   -1.036421    0.000876 
| 19> C        2.257001   -2.260308    0.000535 
| 20> C        4.472096   -1.347919   -0.002398 
| 21> C        3.629983   -2.459360   -0.001050 
| 22> H        1.562821   -3.092687    0.001515 
| 23> H        4.023772   -3.470102   -0.001337 
| 24> C        3.900751   -0.081941   -0.002040 
| 25> H        4.532932    0.798314   -0.003223 
| 26> H        5.551118   -1.464051   -0.003853 
| 27> Pd      -0.336917   -0.654572    0.001071 
| 28> C       -0.858975   -2.626404    0.002691 
| 29> H       -0.413078   -3.060930    0.907026 
| 30> H       -0.415091   -3.062278   -0.901950 
| 31> H       -1.933716   -2.807010    0.004117 
| 32> I       -2.840745   -0.024929   -0.001244 
| 33> *
| 34> 
| 35> %maxcore 5000
| 36> 
| 37> %pal
| 38> nprocs = 24
| 39> end
| 40> 
| 41> 
| 42>                          ****END OF INPUT****
================================================================================

                       ****************************
                       * Single Point Calculation *
                       ****************************

---------------------------------
CARTESIAN COORDINATES (ANGSTROEM)
---------------------------------
  C     -0.215143    2.474912    0.000943
  C      0.405007    3.719049    0.001069
  C      1.797844    3.776033    0.000678
  C      2.518886    2.587780    0.000166
  H     -1.296303    2.357179    0.001183
  H     -0.198474    4.620568    0.001502
  H      2.316345    4.729851    0.000789
  H      3.602578    2.611029   -0.000041
  N      0.477795    1.324684    0.000439
  C      1.835277    1.367244    0.000057
  C      2.509992    0.059887   -0.000357
  N      1.694840   -1.036421    0.000876
  C      2.257001   -2.260308    0.000535
  C      4.472096   -1.347919   -0.002398
  C      3.629983   -2.459360   -0.001050
  H      1.562821   -3.092687    0.001515
  H      4.023772   -3.470102   -0.001337
  C      3.900751   -0.081941   -0.002040
  H      4.532932    0.798314   -0.003223
  H      5.551118   -1.464051   -0.003853
  Pd    -0.336917   -0.654572    0.001071
  C     -0.858975   -2.626404    0.002691
  H     -0.413078   -3.060930    0.907026
  H     -0.415091   -3.062278   -0.901950
  H     -1.933716   -2.807010    0.004117
  I     -2.840745   -0.024929   -0.001244

----------------------------
CARTESIAN COORDINATES (A.U.)
----------------------------
  NO LB      ZA    FRAG     MASS         X           Y           Z
   0 C     6.0000    0    12.011   -0.406561    4.676906    0.001782
   1 C     6.0000    0    12.011    0.765352    7.027984    0.002020
   2 C     6.0000    0    12.011    3.397433    7.135668    0.001281
   3 C     6.0000    0    12.011    4.760005    4.890195    0.000314
   4 H     1.0000    0     1.008   -2.449658    4.454423    0.002236
   5 H     1.0000    0     1.008   -0.375062    8.731608    0.002838
   6 H     1.0000    0     1.008    4.377258    8.938123    0.001491
   7 H     1.0000    0     1.008    6.807886    4.934130   -0.000077
   8 N     7.0000    0    14.007    0.902902    2.503290    0.000830
   9 C     6.0000    0    12.011    3.468171    2.583717    0.000108
  10 C     6.0000    0    12.011    4.743197    0.113170   -0.000675
  11 N     7.0000    0    14.007    3.202783   -1.958552    0.001655
  12 C     6.0000    0    12.011    4.265114   -4.271363    0.001011
  13 C     6.0000    0    12.011    8.451037   -2.547198   -0.004532
  14 C     6.0000    0    12.011    6.859674   -4.647517   -0.001984
  15 H     1.0000    0     1.008    2.953304   -5.844331    0.002863
  16 H     1.0000    0     1.008    7.603827   -6.557542   -0.002527
  17 C     6.0000    0    12.011    7.371351   -0.154846   -0.003855
  18 H     1.0000    0     1.008    8.566000    1.508595   -0.006091
  19 H     1.0000    0     1.008   10.490093   -2.766655   -0.007281
  20 Pd   18.0000*   0   106.400   -0.636681   -1.236962    0.002024
  21 C     6.0000    0    12.011   -1.623228   -4.963184    0.005085
  22 H     1.0000    0     1.008   -0.780604   -5.784319    1.714031
  23 H     1.0000    0     1.008   -0.784408   -5.786867   -1.704438
  24 H     1.0000    0     1.008   -3.654194   -5.304480    0.007780
  25 I    25.0000*   0   126.900   -5.368230   -0.047109   -0.002351
* core charge reduced due to ECP

--------------------------------
INTERNAL COORDINATES (ANGSTROEM)
--------------------------------
 C      0   0   0     0.000000000000     0.00000000     0.00000000
 C      1   0   0     1.390130538167     0.00000000     0.00000000
 C      2   1   0     1.394002237339   118.83711176     0.00000000
 C      3   2   1     1.389908996991   118.90694601     0.00000000
 H      1   2   3     1.087551406826   122.70906397   180.00284307
 H      2   1   3     1.084862208859   119.70713808   180.00216069
 H      3   2   1     1.085639017559   120.87154500   180.00165553
 H      4   3   2     1.083941377434   120.02072603   180.00626221
 N      1   2   3     1.342828275635   122.43942809     0.00000000
 C      9   1   2     1.358149063928   119.27049038     0.00000000
 C     10   9   1     1.471197752877   115.50208954   179.99455671
 N     11  10   9     1.366149894505   116.06974155   359.94470710
 C     12  11  10     1.346820142028   118.69711968   179.99840289
 C     13  12  11     2.395643577170    92.28391119     0.00000000
 C     13  12  11     1.387336939338   122.91960657     0.00000000
 H     13  12  11     1.083854986814   115.50237785   180.00257567
 H     15  13  12     1.084743863524   119.53522378   180.00543293
 C     14  13  12     1.388933235859    88.09655549     0.00000000
 H     18  14  13     1.083744933679   120.02483225   180.01107621
 H     14  13  12     1.085254456306   151.47051943   180.02007691
 Pd    12  11  10     2.067328034898   115.98835512     0.06244482
 C     21  12  11     2.039771706831    94.18524209   179.99033678
 H     22  21  12     1.097933864816   106.21819733    59.04752517
 H     22  21  12     1.097904589759   106.23938293   300.85984525
 H     22  21  12     1.089811349635   114.36850026   179.94039775
 I     21  12  11     2.581784328765   176.52795742     0.88253711

---------------------------
INTERNAL COORDINATES (A.U.)
---------------------------
 C      0   0   0     0.000000000000     0.00000000     0.00000000
 C      1   0   0     2.626966007537     0.00000000     0.00000000
 C      2   1   0     2.634282458644   118.83711176     0.00000000
 C      3   2   1     2.626547355386   118.90694601     0.00000000
 H      1   2   3     2.055174315462   122.70906397   180.00284307
 H      2   1   3     2.050092467785   119.70713808   180.00216069
 H      3   2   1     2.051560423485   120.87154500   180.00165553
 H      4   3   2     2.048352348576   120.02072603   180.00626221
 N      1   2   3     2.537577685835   122.43942809     0.00000000
 C      9   1   2     2.566529779865   119.27049038     0.00000000
 C     10   9   1     2.780160841778   115.50208954   179.99455671
 N     11  10   9     2.581649158501   116.06974155   359.94470710
 C     12  11  10     2.545121220081   118.69711968   179.99840289
 C     13  12  11     4.527110275338    92.28391119     0.00000000
 C     13  12  11     2.621686870822   122.91960657     0.00000000
 H     13  12  11     2.048189093963   115.50237785   180.00257567
 H     15  13  12     2.049868827513   119.53522378   180.00543293
 C     14  13  12     2.624703434074    88.09655549     0.00000000
 H     18  14  13     2.047981123678   120.02483225   180.01107621
 H     14  13  12     2.050833708037   151.47051943   180.02007691
 Pd    12  11  10     3.906683814935   115.98835512     0.06244482
 C     21  12  11     3.854609901632    94.18524209   179.99033678
 H     22  21  12     2.074794317660   106.21819733    59.04752517
 H     22  21  12     2.074738995819   106.23938293   300.85984525
 H     22  21  12     2.059444988449   114.36850026   179.94039775
 I     21  12  11     4.878865318216   176.52795742     0.88253711

---------------------
BASIS SET INFORMATION
---------------------
There are 5 groups of distinct atoms

 Group   1 Type C   : 12s6p3d1f contracted to 6s3p3d1f pattern {621111/411/111/1}
 Group   2 Type H   : 5s3p1d contracted to 3s3p1d pattern {311/111/1}
 Group   3 Type N   : 12s6p3d1f contracted to 6s3p3d1f pattern {621111/411/111/1}
 Group   4 Type Pd  : 7s7p6d2f1g contracted to 6s4p3d2f1g pattern {211111/4111/411/11/1}
 Group   5 Type I   : 12s11p9d2f contracted to 7s6p4d2f pattern {5211111/341111/6111/11}

Atom   0C    basis set group =>   1
Atom   1C    basis set group =>   1
Atom   2C    basis set group =>   1
Atom   3C    basis set group =>   1
Atom   4H    basis set group =>   2
Atom   5H    basis set group =>   2
Atom   6H    basis set group =>   2
Atom   7H    basis set group =>   2
Atom   8N    basis set group =>   3
Atom   9C    basis set group =>   1
Atom  10C    basis set group =>   1
Atom  11N    basis set group =>   3
Atom  12C    basis set group =>   1
Atom  13C    basis set group =>   1
Atom  14C    basis set group =>   1
Atom  15H    basis set group =>   2
Atom  16H    basis set group =>   2
Atom  17C    basis set group =>   1
Atom  18H    basis set group =>   2
Atom  19H    basis set group =>   2
Atom  20Pd   basis set group =>   4
Atom  21C    basis set group =>   1
Atom  22H    basis set group =>   2
Atom  23H    basis set group =>   2
Atom  24H    basis set group =>   2
Atom  25I    basis set group =>   5
---------------------------------
AUXILIARY/C BASIS SET INFORMATION
---------------------------------
There are 5 groups of distinct atoms

 Group   1 Type C   : 9s7p6d4f1g contracted to 9s7p5d4f1g pattern {111111111/1111111/21111/1111/1}
 Group   2 Type H   : 5s4p3d1f contracted to 5s4p3d1f pattern {11111/1111/111/1}
 Group   3 Type N   : 9s7p6d4f1g contracted to 9s7p5d4f1g pattern {111111111/1111111/21111/1111/1}
 Group   4 Type Pd  : 8s7p6d5f4g3h1i contracted to 8s7p6d5f4g3h1i pattern {11111111/1111111/111111/11111/1111/111/1}
 Group   5 Type I   : 10s9p9d7f4g3h contracted to 10s9p9d7f4g3h pattern {1111111111/111111111/111111111/1111111/1111/111}

Atom   0C    basis set group =>   1
Atom   1C    basis set group =>   1
Atom   2C    basis set group =>   1
Atom   3C    basis set group =>   1
Atom   4H    basis set group =>   2
Atom   5H    basis set group =>   2
Atom   6H    basis set group =>   2
Atom   7H    basis set group =>   2
Atom   8N    basis set group =>   3
Atom   9C    basis set group =>   1
Atom  10C    basis set group =>   1
Atom  11N    basis set group =>   3
Atom  12C    basis set group =>   1
Atom  13C    basis set group =>   1
Atom  14C    basis set group =>   1
Atom  15H    basis set group =>   2
Atom  16H    basis set group =>   2
Atom  17C    basis set group =>   1
Atom  18H    basis set group =>   2
Atom  19H    basis set group =>   2
Atom  20Pd   basis set group =>   4
Atom  21C    basis set group =>   1
Atom  22H    basis set group =>   2
Atom  23H    basis set group =>   2
Atom  24H    basis set group =>   2
Atom  25I    basis set group =>   5
----------------------------------
AUXILIARY/JK BASIS SET INFORMATION
----------------------------------
There are 5 groups of distinct atoms

 Group   1 Type C   : 14s10p6d2f1g contracted to 10s8p5d1f1g pattern {5111111111/31111111/21111/2/1}
 Group   2 Type H   : 4s2p2d contracted to 2s2p2d pattern {31/11/11}
 Group   3 Type N   : 14s10p6d2f1g contracted to 10s8p4d2f1g pattern {5111111111/31111111/3111/11/1}
 Group   4 Type Pd  : 13s12p10d9f6g3h2i contracted to 11s10p9d8f6g3h2i pattern {31111111111/3111111111/211111111/21111111/111111/111/11}
 Group   5 Type I   : 13s12p11d8f6g3h contracted to 11s10p10d7f5g3h pattern {31111111111/3111111111/2111111111/2111111/21111/111}

Atom   0C    basis set group =>   1
Atom   1C    basis set group =>   1
Atom   2C    basis set group =>   1
Atom   3C    basis set group =>   1
Atom   4H    basis set group =>   2
Atom   5H    basis set group =>   2
Atom   6H    basis set group =>   2
Atom   7H    basis set group =>   2
Atom   8N    basis set group =>   3
Atom   9C    basis set group =>   1
Atom  10C    basis set group =>   1
Atom  11N    basis set group =>   3
Atom  12C    basis set group =>   1
Atom  13C    basis set group =>   1
Atom  14C    basis set group =>   1
Atom  15H    basis set group =>   2
Atom  16H    basis set group =>   2
Atom  17C    basis set group =>   1
Atom  18H    basis set group =>   2
Atom  19H    basis set group =>   2
Atom  20Pd   basis set group =>   4
Atom  21C    basis set group =>   1
Atom  22H    basis set group =>   2
Atom  23H    basis set group =>   2
Atom  24H    basis set group =>   2
Atom  25I    basis set group =>   5
-------------------------
ECP PARAMETER INFORMATION
-------------------------

 Group 1, Type Pd ECP Def2-ECP (replacing 28 core electrons, lmax=3)
 Group 2, Type I  ECP Def2-ECP (replacing 28 core electrons, lmax=3)

Atom  20Pd   ECP group =>   1
Atom  25I    ECP group =>   2



           ************************************************************
           *        Program running with 24 parallel MPI-processes    *
           *              working on a common directory               *
           ************************************************************
------------------------------------------------------------------------------
                           ORCA GTO INTEGRAL CALCULATION
                           -- RI-GTO INTEGRALS CHOSEN --
------------------------------------------------------------------------------

                         BASIS SET STATISTICS AND STARTUP INFO

Gaussian basis set:
 # of primitive gaussian shells          ...  442
 # of primitive gaussian functions       ... 1070
 # of contracted shells                  ...  281
 # of contracted basis functions         ...  783
 Highest angular momentum                ...    4
 Maximum contraction depth               ...    6
Auxiliary gaussian basis set:
 # of primitive gaussian shells          ...  625
 # of primitive gaussian functions       ... 2003
 # of contracted shells                  ...  486
 # of contracted aux-basis functions     ... 1650
 Highest angular momentum                ...    6
 Maximum contraction depth               ...    5
Ratio of auxiliary to basis functions    ...  2.11
Integral package used                  ... LIBINT
 One Electron integrals                  
   ECP integrals                         ... done
 Ordering auxiliary basis shells         ... done
 Integral threshhold             Thresh  ...  1.000e-10
 Primitive cut-off               TCut    ...  1.000e-11
 Pre-screening matrix                    ... done
 Shell pair data                         ... 
 Ordering of the shell pairs             ... done (   0.006 sec) 32905 of 39621 pairs
 Determination of significant pairs      ... done (   0.000 sec)
 Creation of shell pair data             ... done (   0.003 sec)
 Storage of shell pair data              ... done (   0.010 sec)
 Shell pair data done in (   0.019 sec)
 Computing two index integrals           ... done
 Cholesky decomposition of the V-matrix  ... done


Timings:
 Total evaluation time                   ...   4.141 sec (  0.069 min)
 One electron matrix time                ...   3.371 sec (  0.056 min) = 81.4%
 Schwartz matrix evaluation time         ...   0.424 sec (  0.007 min) = 10.2%
 Two index repulsion integral time       ...   0.177 sec (  0.003 min) =  4.3%
 Cholesky decomposition of V             ...   0.122 sec (  0.002 min) =  2.9%
 Three index repulsion integral time     ...   0.000 sec (  0.000 min) =  0.0%



           ************************************************************
           *        Program running with 24 parallel MPI-processes    *
           *              working on a common directory               *
           ************************************************************
-------------------------------------------------------------------------------
                                 ORCA SCF
-------------------------------------------------------------------------------

------------
SCF SETTINGS
------------
Hamiltonian:
 Density Functional     Method          .... DFT(GTOs)
 Exchange Functional    Exchange        .... B88
   X-Alpha parameter    XAlpha          ....  0.666667
   Becke's b parameter  XBeta           ....  0.004200
 Correlation Functional Correlation     .... LYP
 LDA part of GGA corr.  LDAOpt          .... VWN-5
 Gradients option       PostSCFGGA      .... off
 Hybrid DFT is turned on
   Fraction HF Exchange ScalHFX         ....  0.710000
   Scaling of DF-GGA-X  ScalDFX         ....  0.290000
   Scaling of DF-GGA-C  ScalDFC         ....  0.540000
   Scaling of DF-LDA-C  ScalLDAC        ....  0.540000
   Perturbative correction              ....  1.000000
   Density functional embedding theory  .... OFF
 RI-approximation to the Coulomb term is turned on
   Number of auxiliary basis functions  .... 1650
   RI-JK (J+K treated both via RI)      .... on


General Settings:
 Integral files         IntName         .... MOR11_ed11
 Hartree-Fock type      HFTyp           .... RHF
 Total Charge           Charge          ....    0
 Multiplicity           Mult            ....    1
 Number of Electrons    NEL             ....  134
 Basis Dimension        Dim             ....  783
 Nuclear Repulsion      ENuc            ....   1306.7874881661 Eh

Convergence Acceleration:
 DIIS                   CNVDIIS         .... on
   Start iteration      DIISMaxIt       ....    12
   Startup error        DIISStart       ....  0.200000
   # of expansion vecs  DIISMaxEq       ....     5
   Bias factor          DIISBfac        ....   1.050
   Max. coefficient     DIISMaxC        ....  10.000
 Newton-Raphson         CNVNR           .... off
 SOSCF                  CNVSOSCF        .... off
 Level Shifting         CNVShift        .... on
   Level shift para.    LevelShift      ....    0.2500
   Turn off err/grad.   ShiftErr        ....    0.0010
 Zerner damping         CNVZerner       .... off
 Static damping         CNVDamp         .... on
   Fraction old density DampFac         ....    0.7000
   Max. Damping (<1)    DampMax         ....    0.9800
   Min. Damping (>=0)   DampMin         ....    0.0000
   Turn off err/grad.   DampErr         ....    0.1000
 Fernandez-Rico         CNVRico         .... off

SCF Procedure:
 Maximum # iterations   MaxIter         ....   125
 SCF integral mode      SCFMode         .... Direct
   Integral package                     .... LIBINT
 Reset frequency        DirectResetFreq ....    20
 Integral Threshold     Thresh          ....  1.000e-10 Eh
 Primitive CutOff       TCut            ....  1.000e-11 Eh

Convergence Tolerance:
 Convergence Check Mode ConvCheckMode   .... Total+1el-Energy
 Convergence forced     ConvForced      .... 0
 Energy Change          TolE            ....  1.000e-06 Eh
 1-El. energy change                    ....  1.000e-03 Eh
 DIIS Error             TolErr          ....  1.000e-06


Diagonalization of the overlap matrix:
Smallest eigenvalue                        ... 1.861e-07
Time for diagonalization                   ...    0.100 sec
Threshold for overlap eigenvalues          ... 1.000e-08
Number of eigenvalues below threshold      ... 0
Time for construction of square roots      ...    0.077 sec
Total time needed                          ...    0.179 sec

-------------------
DFT GRID GENERATION
-------------------

General Integration Accuracy     IntAcc      ...  4.670
Radial Grid Type                 RadialGrid  ... Gauss-Chebyshev
Angular Grid (max. acc.)         AngularGrid ... Lebedev-302
Angular grid pruning method      GridPruning ... 3 (G Style)
Weight generation scheme         WeightScheme... Becke
Basis function cutoff            BFCut       ...    1.0000e-10
Integration weight cutoff        WCut        ...    1.0000e-14
Grids for H and He will be reduced by one unit

# of grid points (after initial pruning)     ... 139514 (   0.0 sec)
# of grid points (after weights+screening)   ... 124806 (   0.1 sec)
nearest neighbour list constructed           ...    0.0 sec
Grid point re-assignment to atoms done       ...    0.0 sec
Grid point division into batches done        ...    0.5 sec
Reduced shell lists constructed in    0.9 sec

Total number of grid points                  ...   124806
Total number of batches                      ...     1963
Average number of points per batch           ...       63
Average number of grid points per atom       ...     4800
Average number of shells per batch           ...   156.45 (55.67%)
Average number of basis functions per batch  ...   433.31 (55.34%)
Average number of large shells per batch     ...   117.80 (75.29%)
Average number of large basis fcns per batch ...   328.42 (75.79%)
Average number of aux-shells per batch       ...   156.45 (32.19%)
Average number of aux functions per batch    ...   433.31 (26.26%)
Maximum spatial batch extension              ...   3.57,  3.80, 16.24 au
Average spatial batch extension              ...   0.06,  0.06,  0.09 au

Time for grid setup =    1.064 sec

------------------------------
INITIAL GUESS: MODEL POTENTIAL
------------------------------
Loading Hartree-Fock densities                     ... done
  calling /sw/apps/orca/orca_4_2_0_linux_x86-64_openmpi314/orca MOR11_ed11_atom46.inp > MOR11_ed11_atom46.out in order to generate an atomic fitting density for atom 20 (Pd with ECP) on-the-fly... 
    atom 20 (Pd), assumed electronic state with S=3: 1s2 2s2 2p6 3s2 3p6 4s2 3d10 4p6 5s2 4d8           ... done
  calling /sw/apps/orca/orca_4_2_0_linux_x86-64_openmpi314/orca MOR11_ed11_atom53.inp > MOR11_ed11_atom53.out in order to generate an atomic fitting density for atom 25 (I  with ECP) on-the-fly... 
    atom 25 (I ), assumed electronic state with S=2: 1s2 2s2 2p6 3s2 3p6 4s2 3d10 4p6 5s2 4d10 5p5           ... done
Calculating cut-offs                               ... done
Setting up the integral package                    ... done
Initializing the effective Hamiltonian             ... done
Starting the Coulomb interaction                   ... done (   0.1 sec)
Reading the grid                                   ... done
Mapping shells                                     ... done
Starting the XC term evaluation                    ... done (   0.3 sec)
  promolecular density results
     # of electrons  =    189.988200233
     EX              =   -386.124682539
     EC              =     -1.076776223
     EX+EC           =   -387.201458763
Transforming the Hamiltonian                       ... done (   0.1 sec)
Diagonalizing the Hamiltonian                      ... done (   0.1 sec)
Back transforming the eigenvectors                 ... done (   0.0 sec)
Now organizing SCF variables                       ... done
                      ------------------
                      INITIAL GUESS DONE (   3.9 sec)
                      ------------------
--------------
SCF ITERATIONS
--------------
ITER       Energy         Delta-E        Max-DP      RMS-DP      [F,P]     Damp
  0   -680.5891030188   0.000000000000162.18671255  0.44582332  6.9033746 0.7000
  1   -843.1802864985-162.591183479721167.85562034  0.42797695  2.9005438 0.7000
  2   -880.4613348306 -37.281048332095100.94535207  0.27780340  0.9579197 0.7000
  3   -905.7933381881 -25.33200335746691.19991555  0.24252841  0.6219815 0.7000
  4   -921.2874116246 -15.49407343647875.61006944  0.20040358  0.4690654 0.7000
  5   -932.4179223149 -11.13051069027856.81065803  0.15091931  0.3470504 0.7000
  6   -940.2885716465  -7.87064933161940.23221692  0.10742016  0.2640351 0.7000
  7   -945.8329231494  -5.54435150289527.46585280  0.07366147  0.2147440 0.7000
                               ***Turning on DIIS***
  8   -949.6772644515  -3.84434130215418.70080223  0.05024680  0.1662158 0.7000
  9   -952.3115837417  -2.63431929013913.11733245  0.03533327  0.1239397 0.7000
 10   -954.0993996799  -1.78781593826431.59395082  0.08473662  0.0877990 0.0000
 11   -958.4176577951  -4.318258115171 0.25158259  0.00129328  0.0426392 0.0000
 12   -958.4256807739  -0.008022978769 0.28017654  0.00131922  0.0088431 0.0000
 13   -958.4263920386  -0.000711264768 0.35197182  0.00131523  0.0040649 0.0000
 14   -958.4265298366  -0.000137797978 0.31134983  0.00159751  0.0036946 0.0000
 15   -958.4265890206  -0.000059183945 0.21911226  0.00103473  0.0008375 0.0000
 16   -958.4266132705  -0.000024249961 0.43246237  0.00198351  0.0009318 0.0000
 17   -958.4266204208  -0.000007150320 0.36697111  0.00196633  0.0003811 0.0000
 18   -958.4266228446  -0.000002423715 0.35182829  0.00115868  0.0002341 0.0000
 19   -958.4266234654  -0.000000620842 0.11379004  0.00048844  0.0001349 0.0000
 20   -958.4266236868  -0.000000221369 0.46522396  0.00138031  0.0000992 0.0000
 21   -958.4266237529  -0.000000066088 0.18770187  0.00079978  0.0000496 0.0000
                 **** Energy Check signals convergence ****

               *****************************************************
               *                     SUCCESS                       *
               *           SCF CONVERGED AFTER  22 CYCLES          *
               *****************************************************


----------------
TOTAL SCF ENERGY
----------------

Total Energy       :         -958.42662376 Eh          -26080.11432 eV

Components:
Nuclear Repulsion  :         1306.78748817 Eh           35559.49536 eV
Electronic Energy  :        -2265.21411193 Eh          -61639.60968 eV
One Electron Energy:        -4066.71294230 Eh         -110660.88505 eV
Two Electron Energy:         1801.49883037 Eh           49021.27537 eV

Virial components:
Potential Energy   :        -1652.10518623 Eh          -44956.06764 eV
Kinetic Energy     :          693.67856247 Eh           18875.95332 eV
Virial Ratio       :            2.38165813


DFT components:
N(Alpha)           :       66.999982993639 electrons
N(Beta)            :       66.999982993639 electrons
N(Total)           :      133.999965987277 electrons
E(X)               :      -31.196554215995 Eh       
E(C)               :       -2.577300105433 Eh       
E(XC)              :      -33.773854321429 Eh       
DFET-embed. en.    :        0.000000000000 Eh       

---------------
SCF CONVERGENCE
---------------

  Last Energy change         ...   -1.1545e-08  Tolerance :   1.0000e-06
  Last MAX-Density change    ...    1.1650e-01  Tolerance :   1.0000e-05
  Last RMS-Density change    ...    3.5968e-04  Tolerance :   1.0000e-06
  Last DIIS Error            ...    2.3265e-05  Tolerance :   1.0000e-06

             **** THE GBW FILE WAS UPDATED (MOR11_ed11.gbw) ****
             **** DENSITY FILE WAS UPDATED (MOR11_ed11.scfp) ****
             **** ENERGY FILE WAS UPDATED (MOR11_ed11.en.tmp) ****
             **** THE GBW FILE WAS UPDATED (MOR11_ed11.gbw) ****
             **** DENSITY FILE WAS UPDATED (MOR11_ed11.scfp) ****
----------------
ORBITAL ENERGIES
----------------

  NO   OCC          E(Eh)            E(eV) 
   0   2.0000     -15.194454      -413.4621 
   1   2.0000     -15.178102      -413.0171 
   2   2.0000     -10.957651      -298.1728 
   3   2.0000     -10.950825      -297.9871 
   4   2.0000     -10.938001      -297.6381 
   5   2.0000     -10.925469      -297.2971 
   6   2.0000     -10.922434      -297.2145 
   7   2.0000     -10.915256      -297.0192 
   8   2.0000     -10.911368      -296.9134 
   9   2.0000     -10.906431      -296.7791 
  10   2.0000     -10.905196      -296.7455 
  11   2.0000     -10.897214      -296.5283 
  12   2.0000     -10.802370      -293.9474 
  13   2.0000      -7.325926      -199.3486 
  14   2.0000      -5.237501      -142.5196 
  15   2.0000      -5.233566      -142.4126 
  16   2.0000      -5.233310      -142.4056 
  17   2.0000      -3.824926      -104.0815 
  18   2.0000      -2.416837       -65.7655 
  19   2.0000      -2.415422       -65.7270 
  20   2.0000      -2.397968       -65.2520 
  21   2.0000      -2.060263       -56.0626 
  22   2.0000      -2.058579       -56.0168 
  23   2.0000      -2.058407       -56.0121 
  24   2.0000      -2.054410       -55.9033 
  25   2.0000      -2.054378       -55.9025 
  26   2.0000      -1.213098       -33.0101 
  27   2.0000      -1.181845       -32.1596 
  28   2.0000      -1.037613       -28.2349 
  29   2.0000      -1.025567       -27.9071 
  30   2.0000      -1.019669       -27.7466 
  31   2.0000      -0.956421       -26.0255 
  32   2.0000      -0.853744       -23.2316 
  33   2.0000      -0.842337       -22.9211 
  34   2.0000      -0.805300       -21.9133 
  35   2.0000      -0.795975       -21.6596 
  36   2.0000      -0.787519       -21.4295 
  37   2.0000      -0.733696       -19.9649 
  38   2.0000      -0.710421       -19.3315 
  39   2.0000      -0.665943       -18.1212 
  40   2.0000      -0.664005       -18.0685 
  41   2.0000      -0.643464       -17.5095 
  42   2.0000      -0.623088       -16.9551 
  43   2.0000      -0.598971       -16.2988 
  44   2.0000      -0.583976       -15.8908 
  45   2.0000      -0.576701       -15.6928 
  46   2.0000      -0.570117       -15.5137 
  47   2.0000      -0.563583       -15.3359 
  48   2.0000      -0.526768       -14.3341 
  49   2.0000      -0.520234       -14.1563 
  50   2.0000      -0.506460       -13.7815 
  51   2.0000      -0.480811       -13.0835 
  52   2.0000      -0.474438       -12.9101 
  53   2.0000      -0.467537       -12.7223 
  54   2.0000      -0.460852       -12.5404 
  55   2.0000      -0.420074       -11.4308 
  56   2.0000      -0.402679       -10.9575 
  57   2.0000      -0.395229       -10.7547 
  58   2.0000      -0.381771       -10.3885 
  59   2.0000      -0.360420        -9.8075 
  60   2.0000      -0.350989        -9.5509 
  61   2.0000      -0.346518        -9.4292 
  62   2.0000      -0.328362        -8.9352 
  63   2.0000      -0.319987        -8.7073 
  64   2.0000      -0.290130        -7.8948 
  65   2.0000      -0.257141        -6.9972 
  66   2.0000      -0.256091        -6.9686 
  67   0.0000      -0.032140        -0.8746 
  68   0.0000       0.005000         0.1361 
  69   0.0000       0.018950         0.5156 
  70   0.0000       0.023528         0.6402 
  71   0.0000       0.032869         0.8944 
  72   0.0000       0.044827         1.2198 
  73   0.0000       0.050351         1.3701 
  74   0.0000       0.057479         1.5641 
  75   0.0000       0.062601         1.7035 
  76   0.0000       0.068367         1.8604 
  77   0.0000       0.071044         1.9332 
  78   0.0000       0.072587         1.9752 
  79   0.0000       0.074253         2.0205 
  80   0.0000       0.084876         2.3096 
  81   0.0000       0.091977         2.5028 
  82   0.0000       0.093148         2.5347 
  83   0.0000       0.099740         2.7141 
  84   0.0000       0.108521         2.9530 
  85   0.0000       0.127147         3.4599 
  86   0.0000       0.135883         3.6976 
  87   0.0000       0.136267         3.7080 
  88   0.0000       0.137796         3.7496 
  89   0.0000       0.140870         3.8333 
  90   0.0000       0.149868         4.0781 
  91   0.0000       0.155650         4.2355 
  92   0.0000       0.158300         4.3076 
  93   0.0000       0.165641         4.5073 
  94   0.0000       0.165770         4.5108 
  95   0.0000       0.179838         4.8936 
  96   0.0000       0.184671         5.0252 
  97   0.0000       0.189617         5.1597 
  98   0.0000       0.190398         5.1810 
  99   0.0000       0.194125         5.2824 
 100   0.0000       0.198382         5.3982 
 101   0.0000       0.204616         5.5679 
 102   0.0000       0.204811         5.5732 
 103   0.0000       0.209317         5.6958 
 104   0.0000       0.212987         5.7957 
 105   0.0000       0.214462         5.8358 
 106   0.0000       0.217639         5.9223 
 107   0.0000       0.227060         6.1786 
 108   0.0000       0.228751         6.2246 
 109   0.0000       0.233374         6.3504 
 110   0.0000       0.235365         6.4046 
 111   0.0000       0.240230         6.5370 
 112   0.0000       0.243786         6.6338 
 113   0.0000       0.246576         6.7097 
 114   0.0000       0.249028         6.7764 
 115   0.0000       0.253737         6.9045 
 116   0.0000       0.257314         7.0019 
 117   0.0000       0.259873         7.0715 
 118   0.0000       0.261684         7.1208 
 119   0.0000       0.269097         7.3225 
 120   0.0000       0.269220         7.3258 
 121   0.0000       0.273976         7.4553 
 122   0.0000       0.277377         7.5478 
 123   0.0000       0.278738         7.5849 
 124   0.0000       0.280732         7.6391 
 125   0.0000       0.290315         7.8999 
 126   0.0000       0.294096         8.0028 
 127   0.0000       0.297169         8.0864 
 128   0.0000       0.301661         8.2086 
 129   0.0000       0.310099         8.4382 
 130   0.0000       0.312368         8.5000 
 131   0.0000       0.313667         8.5353 
 132   0.0000       0.317383         8.6364 
 133   0.0000       0.317697         8.6450 
 134   0.0000       0.319360         8.6902 
 135   0.0000       0.329506         8.9663 
 136   0.0000       0.330267         8.9870 
 137   0.0000       0.335033         9.1167 
 138   0.0000       0.335994         9.1429 
 139   0.0000       0.343641         9.3509 
 140   0.0000       0.345156         9.3922 
 141   0.0000       0.350838         9.5468 
 142   0.0000       0.351227         9.5574 
 143   0.0000       0.356734         9.7072 
 144   0.0000       0.357142         9.7183 
 145   0.0000       0.365362         9.9420 
 146   0.0000       0.368890        10.0380 
 147   0.0000       0.370419        10.0796 
 148   0.0000       0.374218        10.1830 
 149   0.0000       0.374406        10.1881 
 150   0.0000       0.375211        10.2100 
 151   0.0000       0.378892        10.3102 
 152   0.0000       0.391452        10.6519 
 153   0.0000       0.394116        10.7244 
 154   0.0000       0.394295        10.7293 
 155   0.0000       0.394801        10.7431 
 156   0.0000       0.395745        10.7688 
 157   0.0000       0.404599        11.0097 
 158   0.0000       0.408897        11.1266 
 159   0.0000       0.416171        11.3246 
 160   0.0000       0.417730        11.3670 
 161   0.0000       0.418399        11.3852 
 162   0.0000       0.419673        11.4199 
 163   0.0000       0.422545        11.4980 
 164   0.0000       0.427457        11.6317 
 165   0.0000       0.427927        11.6445 
 166   0.0000       0.437062        11.8931 
 167   0.0000       0.440395        11.9838 
 168   0.0000       0.444371        12.0919 
 169   0.0000       0.446431        12.1480 
 170   0.0000       0.449288        12.2257 
 171   0.0000       0.450004        12.2452 
 172   0.0000       0.457386        12.4461 
 173   0.0000       0.461140        12.5483 
 174   0.0000       0.466614        12.6972 
 175   0.0000       0.476394        12.9633 
 176   0.0000       0.476854        12.9758 
 177   0.0000       0.480488        13.0747 
 178   0.0000       0.482027        13.1166 
 179   0.0000       0.488231        13.2854 
 180   0.0000       0.490684        13.3522 
 181   0.0000       0.490843        13.3565 
 182   0.0000       0.497525        13.5383 
 183   0.0000       0.499720        13.5981 
 184   0.0000       0.511779        13.9262 
 185   0.0000       0.514145        13.9906 
 186   0.0000       0.514674        14.0050 
 187   0.0000       0.520257        14.1569 
 188   0.0000       0.520947        14.1757 
 189   0.0000       0.523982        14.2583 
 190   0.0000       0.535753        14.5786 
 191   0.0000       0.540050        14.6955 
 192   0.0000       0.543251        14.7826 
 193   0.0000       0.546107        14.8603 
 194   0.0000       0.550360        14.9761 
 195   0.0000       0.555861        15.1258 
 196   0.0000       0.556216        15.1354 
 197   0.0000       0.563095        15.3226 
 198   0.0000       0.565845        15.3974 
 199   0.0000       0.573492        15.6055 
 200   0.0000       0.580418        15.7940 
 201   0.0000       0.583913        15.8891 
 202   0.0000       0.592458        16.1216 
 203   0.0000       0.594756        16.1841 
 204   0.0000       0.598493        16.2858 
 205   0.0000       0.600740        16.3470 
 206   0.0000       0.607978        16.5439 
 207   0.0000       0.609908        16.5964 
 208   0.0000       0.615293        16.7430 
 209   0.0000       0.618804        16.8385 
 210   0.0000       0.625582        17.0230 
 211   0.0000       0.634030        17.2528 
 212   0.0000       0.636936        17.3319 
 213   0.0000       0.641008        17.4427 
 214   0.0000       0.643230        17.5032 
 215   0.0000       0.649955        17.6862 
 216   0.0000       0.651639        17.7320 
 217   0.0000       0.656468        17.8634 
 218   0.0000       0.664739        18.0885 
 219   0.0000       0.669380        18.2147 
 220   0.0000       0.672646        18.3036 
 221   0.0000       0.680206        18.5093 
 222   0.0000       0.684412        18.6238 
 223   0.0000       0.688336        18.7306 
 224   0.0000       0.688948        18.7472 
 225   0.0000       0.690469        18.7886 
 226   0.0000       0.697689        18.9851 
 227   0.0000       0.700169        19.0526 
 228   0.0000       0.706404        19.2222 
 229   0.0000       0.708258        19.2727 
 230   0.0000       0.716324        19.4922 
 231   0.0000       0.719369        19.5750 
 232   0.0000       0.721081        19.6216 
 233   0.0000       0.726274        19.7629 
 234   0.0000       0.726688        19.7742 
 235   0.0000       0.733051        19.9473 
 236   0.0000       0.736968        20.0539 
 237   0.0000       0.741598        20.1799 
 238   0.0000       0.743663        20.2361 
 239   0.0000       0.751251        20.4426 
 240   0.0000       0.758201        20.6317 
 241   0.0000       0.762877        20.7589 
 242   0.0000       0.765512        20.8307 
 243   0.0000       0.768852        20.9215 
 244   0.0000       0.770061        20.9544 
 245   0.0000       0.778369        21.1805 
 246   0.0000       0.783974        21.3330 
 247   0.0000       0.785377        21.3712 
 248   0.0000       0.791661        21.5422 
 249   0.0000       0.792616        21.5682 
 250   0.0000       0.796134        21.6639 
 251   0.0000       0.804410        21.8891 
 252   0.0000       0.805772        21.9262 
 253   0.0000       0.807053        21.9610 
 254   0.0000       0.810670        22.0595 
 255   0.0000       0.815629        22.1944 
 256   0.0000       0.822682        22.3863 
 257   0.0000       0.831564        22.6280 
 258   0.0000       0.837629        22.7930 
 259   0.0000       0.845927        23.0188 
 260   0.0000       0.856266        23.3002 
 261   0.0000       0.858383        23.3578 
 262   0.0000       0.861252        23.4359 
 263   0.0000       0.867696        23.6112 
 264   0.0000       0.867765        23.6131 
 265   0.0000       0.875222        23.8160 
 266   0.0000       0.880338        23.9552 
 267   0.0000       0.888249        24.1705 
 268   0.0000       0.890309        24.2265 
 269   0.0000       0.898884        24.4599 
 270   0.0000       0.905055        24.6278 
 271   0.0000       0.912978        24.8434 
 272   0.0000       0.913630        24.8611 
 273   0.0000       0.917503        24.9665 
 274   0.0000       0.922913        25.1137 
 275   0.0000       0.923942        25.1417 
 276   0.0000       0.927984        25.2517 
 277   0.0000       0.937030        25.4979 
 278   0.0000       0.943495        25.6738 
 279   0.0000       0.948802        25.8182 
 280   0.0000       0.952518        25.9193 
 281   0.0000       0.958684        26.0871 
 282   0.0000       0.964487        26.2450 
 283   0.0000       0.969062        26.3695 
 284   0.0000       0.976238        26.5648 
 285   0.0000       0.989684        26.9307 
 286   0.0000       0.995274        27.0828 
 287   0.0000       1.011655        27.5285 
 288   0.0000       1.013015        27.5655 
 289   0.0000       1.025452        27.9040 
 290   0.0000       1.026109        27.9218 
 291   0.0000       1.031793        28.0765 
 292   0.0000       1.036873        28.2148 
 293   0.0000       1.041154        28.3313 
 294   0.0000       1.045026        28.4366 
 295   0.0000       1.058181        28.7946 
 296   0.0000       1.058485        28.8028 
 297   0.0000       1.064223        28.9590 
 298   0.0000       1.068379        29.0721 
 299   0.0000       1.069072        29.0909 
 300   0.0000       1.087347        29.5882 
 301   0.0000       1.093633        29.7593 
 302   0.0000       1.095276        29.8040 
 303   0.0000       1.110368        30.2146 
 304   0.0000       1.121682        30.5225 
 305   0.0000       1.129115        30.7248 
 306   0.0000       1.129709        30.7410 
 307   0.0000       1.137738        30.9594 
 308   0.0000       1.146811        31.2063 
 309   0.0000       1.150785        31.3144 
 310   0.0000       1.161453        31.6047 
 311   0.0000       1.173449        31.9312 
 312   0.0000       1.184217        32.2242 
 313   0.0000       1.185586        32.2614 
 314   0.0000       1.187867        32.3235 
 315   0.0000       1.204809        32.7845 
 316   0.0000       1.206721        32.8366 
 317   0.0000       1.220426        33.2095 
 318   0.0000       1.224574        33.3223 
 319   0.0000       1.231329        33.5062 
 320   0.0000       1.233604        33.5681 
 321   0.0000       1.238857        33.7110 
 322   0.0000       1.245631        33.8953 
 323   0.0000       1.256480        34.1906 
 324   0.0000       1.260828        34.3089 
 325   0.0000       1.268381        34.5144 
 326   0.0000       1.282794        34.9066 
 327   0.0000       1.287020        35.0216 
 328   0.0000       1.297196        35.2985 
 329   0.0000       1.299089        35.3500 
 330   0.0000       1.316934        35.8356 
 331   0.0000       1.318608        35.8811 
 332   0.0000       1.333452        36.2851 
 333   0.0000       1.336445        36.3665 
 334   0.0000       1.336646        36.3720 
 335   0.0000       1.349863        36.7316 
 336   0.0000       1.363152        37.0932 
 337   0.0000       1.373103        37.3640 
 338   0.0000       1.375124        37.4190 
 339   0.0000       1.377386        37.4806 
 340   0.0000       1.384730        37.6804 
 341   0.0000       1.399501        38.0823 
 342   0.0000       1.407623        38.3034 
 343   0.0000       1.415356        38.5138 
 344   0.0000       1.422041        38.6957 
 345   0.0000       1.428419        38.8693 
 346   0.0000       1.429426        38.8967 
 347   0.0000       1.444814        39.3154 
 348   0.0000       1.450566        39.4719 
 349   0.0000       1.464947        39.8632 
 350   0.0000       1.473938        40.1079 
 351   0.0000       1.475897        40.1612 
 352   0.0000       1.480551        40.2878 
 353   0.0000       1.482748        40.3476 
 354   0.0000       1.489081        40.5199 
 355   0.0000       1.495509        40.6949 
 356   0.0000       1.510539        41.1038 
 357   0.0000       1.518579        41.3226 
 358   0.0000       1.528516        41.5930 
 359   0.0000       1.535048        41.7708 
 360   0.0000       1.536494        41.8101 
 361   0.0000       1.542893        41.9842 
 362   0.0000       1.552028        42.2328 
 363   0.0000       1.563080        42.5336 
 364   0.0000       1.582516        43.0624 
 365   0.0000       1.589827        43.2614 
 366   0.0000       1.590664        43.2842 
 367   0.0000       1.600401        43.5491 
 368   0.0000       1.614946        43.9449 
 369   0.0000       1.625578        44.2342 
 370   0.0000       1.626816        44.2679 
 371   0.0000       1.634005        44.4635 
 372   0.0000       1.641683        44.6725 
 373   0.0000       1.645590        44.7788 
 374   0.0000       1.672950        45.5233 
 375   0.0000       1.678645        45.6782 
 376   0.0000       1.683823        45.8191 
 377   0.0000       1.690645        46.0048 
 378   0.0000       1.705251        46.4022 
 379   0.0000       1.714957        46.6663 
 380   0.0000       1.724072        46.9144 
 381   0.0000       1.727180        46.9990 
 382   0.0000       1.744507        47.4704 
 383   0.0000       1.750103        47.6227 
 384   0.0000       1.763468        47.9864 
 385   0.0000       1.765890        48.0523 
 386   0.0000       1.785035        48.5733 
 387   0.0000       1.791742        48.7558 
 388   0.0000       1.798736        48.9461 
 389   0.0000       1.809375        49.2356 
 390   0.0000       1.810628        49.2697 
 391   0.0000       1.822365        49.5891 
 392   0.0000       1.830069        49.7987 
 393   0.0000       1.858512        50.5727 
 394   0.0000       1.859889        50.6101 
 395   0.0000       1.862405        50.6786 
 396   0.0000       1.869970        50.8845 
 397   0.0000       1.875984        51.0481 
 398   0.0000       1.887267        51.3552 
 399   0.0000       1.896447        51.6049 
 400   0.0000       1.896978        51.6194 
 401   0.0000       1.900656        51.7195 
 402   0.0000       1.906753        51.8854 
 403   0.0000       1.915930        52.1351 
 404   0.0000       1.930877        52.5418 
 405   0.0000       1.933749        52.6200 
 406   0.0000       1.934019        52.6273 
 407   0.0000       1.943696        52.8907 
 408   0.0000       1.946355        52.9630 
 409   0.0000       1.951015        53.0898 
 410   0.0000       1.960901        53.3588 
 411   0.0000       1.972214        53.6667 
 412   0.0000       1.981105        53.9086 
 413   0.0000       1.988155        54.1004 
 414   0.0000       1.992842        54.2280 
 415   0.0000       2.000834        54.4455 
 416   0.0000       2.006810        54.6081 
 417   0.0000       2.016258        54.8652 
 418   0.0000       2.025487        55.1163 
 419   0.0000       2.045173        55.6520 
 420   0.0000       2.051620        55.8274 
 421   0.0000       2.058015        56.0014 
 422   0.0000       2.069178        56.3052 
 423   0.0000       2.092834        56.9489 
 424   0.0000       2.094689        56.9994 
 425   0.0000       2.108553        57.3767 
 426   0.0000       2.118399        57.6446 
 427   0.0000       2.149446        58.4894 
 428   0.0000       2.165874        58.9364 
 429   0.0000       2.181640        59.3655 
 430   0.0000       2.192850        59.6705 
 431   0.0000       2.193130        59.6781 
 432   0.0000       2.204456        59.9863 
 433   0.0000       2.212945        60.2173 
 434   0.0000       2.216932        60.3258 
 435   0.0000       2.226279        60.5801 
 436   0.0000       2.268244        61.7221 
 437   0.0000       2.269733        61.7626 
 438   0.0000       2.279726        62.0345 
 439   0.0000       2.294699        62.4419 
 440   0.0000       2.298037        62.5328 
 441   0.0000       2.304073        62.6970 
 442   0.0000       2.326101        63.2964 
 443   0.0000       2.354207        64.0612 
 444   0.0000       2.371781        64.5394 
 445   0.0000       2.374734        64.6198 
 446   0.0000       2.382053        64.8190 
 447   0.0000       2.404933        65.4416 
 448   0.0000       2.416643        65.7602 
 449   0.0000       2.442498        66.4638 
 450   0.0000       2.472474        67.2794 
 451   0.0000       2.474449        67.3332 
 452   0.0000       2.489030        67.7300 
 453   0.0000       2.502276        68.0904 
 454   0.0000       2.508973        68.2726 
 455   0.0000       2.536538        69.0227 
 456   0.0000       2.554514        69.5119 
 457   0.0000       2.574673        70.0604 
 458   0.0000       2.592050        70.5333 
 459   0.0000       2.610570        71.0372 
 460   0.0000       2.625625        71.4469 
 461   0.0000       2.626980        71.4838 
 462   0.0000       2.642707        71.9117 
 463   0.0000       2.651366        72.1473 
 464   0.0000       2.659849        72.3782 
 465   0.0000       2.672634        72.7261 
 466   0.0000       2.682210        72.9866 
 467   0.0000       2.694442        73.3195 
 468   0.0000       2.731029        74.3151 
 469   0.0000       2.740438        74.5711 
 470   0.0000       2.758880        75.0729 
 471   0.0000       2.774693        75.5032 
 472   0.0000       2.783172        75.7340 
 473   0.0000       2.791353        75.9566 
 474   0.0000       2.824806        76.8669 
 475   0.0000       2.831022        77.0360 
 476   0.0000       2.850944        77.5781 
 477   0.0000       2.857160        77.7473 
 478   0.0000       2.883574        78.4660 
 479   0.0000       2.889133        78.6173 
 480   0.0000       2.902860        78.9908 
 481   0.0000       2.924807        79.5880 
 482   0.0000       2.925712        79.6127 
 483   0.0000       2.939317        79.9829 
 484   0.0000       2.964012        80.6549 
 485   0.0000       2.972658        80.8901 
 486   0.0000       2.996330        81.5343 
 487   0.0000       3.005647        81.7878 
 488   0.0000       3.023164        82.2645 
 489   0.0000       3.051070        83.0238 
 490   0.0000       3.060959        83.2929 
 491   0.0000       3.066055        83.4316 
 492   0.0000       3.072462        83.6059 
 493   0.0000       3.082081        83.8677 
 494   0.0000       3.103507        84.4507 
 495   0.0000       3.116743        84.8109 
 496   0.0000       3.123113        84.9842 
 497   0.0000       3.126295        85.0708 
 498   0.0000       3.129874        85.1682 
 499   0.0000       3.157447        85.9185 
 500   0.0000       3.172305        86.3228 
 501   0.0000       3.182810        86.6087 
 502   0.0000       3.183633        86.6310 
 503   0.0000       3.186082        86.6977 
 504   0.0000       3.197937        87.0203 
 505   0.0000       3.205692        87.2313 
 506   0.0000       3.207743        87.2871 
 507   0.0000       3.218672        87.5845 
 508   0.0000       3.224396        87.7403 
 509   0.0000       3.230283        87.9005 
 510   0.0000       3.230591        87.9088 
 511   0.0000       3.243932        88.2719 
 512   0.0000       3.252698        88.5104 
 513   0.0000       3.259994        88.7089 
 514   0.0000       3.274703        89.1092 
 515   0.0000       3.274888        89.1142 
 516   0.0000       3.285095        89.3920 
 517   0.0000       3.290218        89.5314 
 518   0.0000       3.294701        89.6534 
 519   0.0000       3.302591        89.8681 
 520   0.0000       3.316241        90.2395 
 521   0.0000       3.323669        90.4416 
 522   0.0000       3.340723        90.9057 
 523   0.0000       3.342627        90.9575 
 524   0.0000       3.343347        90.9771 
 525   0.0000       3.350980        91.1848 
 526   0.0000       3.362439        91.4966 
 527   0.0000       3.364549        91.5540 
 528   0.0000       3.386360        92.1475 
 529   0.0000       3.389574        92.2350 
 530   0.0000       3.406208        92.6876 
 531   0.0000       3.415667        92.9450 
 532   0.0000       3.420246        93.0696 
 533   0.0000       3.422390        93.1280 
 534   0.0000       3.431011        93.3625 
 535   0.0000       3.436170        93.5029 
 536   0.0000       3.439763        93.6007 
 537   0.0000       3.443805        93.7107 
 538   0.0000       3.451154        93.9107 
 539   0.0000       3.462781        94.2271 
 540   0.0000       3.468416        94.3804 
 541   0.0000       3.470826        94.4460 
 542   0.0000       3.475106        94.5625 
 543   0.0000       3.481868        94.7464 
 544   0.0000       3.490637        94.9850 
 545   0.0000       3.497187        95.1633 
 546   0.0000       3.503859        95.3448 
 547   0.0000       3.513284        95.6013 
 548   0.0000       3.519699        95.7759 
 549   0.0000       3.525414        95.9314 
 550   0.0000       3.526456        95.9598 
 551   0.0000       3.532300        96.1188 
 552   0.0000       3.540700        96.3474 
 553   0.0000       3.554006        96.7094 
 554   0.0000       3.555810        96.7585 
 555   0.0000       3.563978        96.9808 
 556   0.0000       3.600240        97.9675 
 557   0.0000       3.601609        98.0048 
 558   0.0000       3.611792        98.2819 
 559   0.0000       3.614696        98.3609 
 560   0.0000       3.618891        98.4750 
 561   0.0000       3.633176        98.8637 
 562   0.0000       3.641013        99.0770 
 563   0.0000       3.652823        99.3984 
 564   0.0000       3.663638        99.6927 
 565   0.0000       3.675715       100.0213 
 566   0.0000       3.678806       100.1054 
 567   0.0000       3.679680       100.1292 
 568   0.0000       3.684959       100.2728 
 569   0.0000       3.690449       100.4222 
 570   0.0000       3.693506       100.5054 
 571   0.0000       3.694089       100.5213 
 572   0.0000       3.705619       100.8350 
 573   0.0000       3.712457       101.0211 
 574   0.0000       3.714906       101.0877 
 575   0.0000       3.733824       101.6025 
 576   0.0000       3.746051       101.9352 
 577   0.0000       3.759106       102.2905 
 578   0.0000       3.765251       102.4577 
 579   0.0000       3.774274       102.7032 
 580   0.0000       3.779213       102.8376 
 581   0.0000       3.780617       102.8758 
 582   0.0000       3.785827       103.0176 
 583   0.0000       3.832848       104.2971 
 584   0.0000       3.859767       105.0296 
 585   0.0000       3.864006       105.1449 
 586   0.0000       3.870739       105.3282 
 587   0.0000       3.876364       105.4812 
 588   0.0000       3.880832       105.6028 
 589   0.0000       3.890183       105.8573 
 590   0.0000       3.903152       106.2102 
 591   0.0000       3.913623       106.4951 
 592   0.0000       3.913884       106.5022 
 593   0.0000       3.920068       106.6705 
 594   0.0000       3.921877       106.7197 
 595   0.0000       3.939814       107.2078 
 596   0.0000       3.963949       107.8645 
 597   0.0000       3.976190       108.1976 
 598   0.0000       4.003859       108.9505 
 599   0.0000       4.011644       109.1624 
 600   0.0000       4.013178       109.2041 
 601   0.0000       4.026578       109.5688 
 602   0.0000       4.032460       109.7288 
 603   0.0000       4.049859       110.2023 
 604   0.0000       4.072700       110.8238 
 605   0.0000       4.101833       111.6166 
 606   0.0000       4.104292       111.6835 
 607   0.0000       4.107593       111.7733 
 608   0.0000       4.110471       111.8516 
 609   0.0000       4.118620       112.0733 
 610   0.0000       4.133395       112.4754 
 611   0.0000       4.142698       112.7286 
 612   0.0000       4.160118       113.2026 
 613   0.0000       4.160823       113.2217 
 614   0.0000       4.172874       113.5497 
 615   0.0000       4.181526       113.7851 
 616   0.0000       4.195669       114.1700 
 617   0.0000       4.202715       114.3617 
 618   0.0000       4.226069       114.9972 
 619   0.0000       4.226477       115.0083 
 620   0.0000       4.237996       115.3217 
 621   0.0000       4.248001       115.5940 
 622   0.0000       4.256398       115.8225 
 623   0.0000       4.261243       115.9543 
 624   0.0000       4.265240       116.0631 
 625   0.0000       4.291878       116.7879 
 626   0.0000       4.317255       117.4785 
 627   0.0000       4.334808       117.9561 
 628   0.0000       4.350491       118.3829 
 629   0.0000       4.356830       118.5554 
 630   0.0000       4.361496       118.6823 
 631   0.0000       4.367772       118.8531 
 632   0.0000       4.373171       119.0000 
 633   0.0000       4.381228       119.2193 
 634   0.0000       4.386019       119.3497 
 635   0.0000       4.402545       119.7993 
 636   0.0000       4.419176       120.2519 
 637   0.0000       4.432841       120.6237 
 638   0.0000       4.440964       120.8448 
 639   0.0000       4.459378       121.3459 
 640   0.0000       4.460596       121.3790 
 641   0.0000       4.463051       121.4458 
 642   0.0000       4.478032       121.8534 
 643   0.0000       4.518625       122.9580 
 644   0.0000       4.523254       123.0840 
 645   0.0000       4.534131       123.3800 
 646   0.0000       4.549275       123.7921 
 647   0.0000       4.552265       123.8734 
 648   0.0000       4.567531       124.2888 
 649   0.0000       4.574138       124.4686 
 650   0.0000       4.585613       124.7809 
 651   0.0000       4.593397       124.9927 
 652   0.0000       4.598810       125.1400 
 653   0.0000       4.611030       125.4725 
 654   0.0000       4.622982       125.7977 
 655   0.0000       4.655385       126.6795 
 656   0.0000       4.662469       126.8722 
 657   0.0000       4.671012       127.1047 
 658   0.0000       4.686770       127.5335 
 659   0.0000       4.708349       128.1207 
 660   0.0000       4.719233       128.4169 
 661   0.0000       4.732808       128.7862 
 662   0.0000       4.735466       128.8586 
 663   0.0000       4.740498       128.9955 
 664   0.0000       4.753939       129.3613 
 665   0.0000       4.803343       130.7056 
 666   0.0000       4.813277       130.9759 
 667   0.0000       4.828404       131.3876 
 668   0.0000       4.838035       131.6496 
 669   0.0000       4.847540       131.9083 
 670   0.0000       4.882056       132.8475 
 671   0.0000       4.911620       133.6520 
 672   0.0000       4.912966       133.6886 
 673   0.0000       4.922224       133.9405 
 674   0.0000       4.923690       133.9804 
 675   0.0000       4.945944       134.5860 
 676   0.0000       4.963843       135.0730 
 677   0.0000       4.966563       135.1471 
 678   0.0000       4.986480       135.6890 
 679   0.0000       4.994584       135.9095 
 680   0.0000       5.015002       136.4651 
 681   0.0000       5.018664       136.5648 
 682   0.0000       5.049700       137.4093 
 683   0.0000       5.053066       137.5009 
 684   0.0000       5.065323       137.8344 
 685   0.0000       5.067567       137.8955 
 686   0.0000       5.090702       138.5251 
 687   0.0000       5.113000       139.1318 
 688   0.0000       5.124608       139.4477 
 689   0.0000       5.135707       139.7497 
 690   0.0000       5.137259       139.7919 
 691   0.0000       5.146060       140.0314 
 692   0.0000       5.174535       140.8063 
 693   0.0000       5.196717       141.4099 
 694   0.0000       5.232428       142.3816 
 695   0.0000       5.249943       142.8582 
 696   0.0000       5.251116       142.8901 
 697   0.0000       5.263044       143.2147 
 698   0.0000       5.280219       143.6821 
 699   0.0000       5.284321       143.7937 
 700   0.0000       5.296357       144.1212 
 701   0.0000       5.301340       144.2568 
 702   0.0000       5.312066       144.5487 
 703   0.0000       5.321292       144.7997 
 704   0.0000       5.335065       145.1745 
 705   0.0000       5.344142       145.4215 
 706   0.0000       5.353499       145.6761 
 707   0.0000       5.367987       146.0703 
 708   0.0000       5.386763       146.5813 
 709   0.0000       5.395123       146.8088 
 710   0.0000       5.396796       146.8543 
 711   0.0000       5.415729       147.3695 
 712   0.0000       5.421192       147.5181 
 713   0.0000       5.428080       147.7056 
 714   0.0000       5.444102       148.1415 
 715   0.0000       5.449040       148.2759 
 716   0.0000       5.456039       148.4664 
 717   0.0000       5.470707       148.8655 
 718   0.0000       5.472778       148.9219 
 719   0.0000       5.490808       149.4125 
 720   0.0000       5.511077       149.9640 
 721   0.0000       5.513563       150.0317 
 722   0.0000       5.521221       150.2401 
 723   0.0000       5.535275       150.6225 
 724   0.0000       5.560617       151.3121 
 725   0.0000       5.561371       151.3326 
 726   0.0000       5.565148       151.4354 
 727   0.0000       5.600684       152.4024 
 728   0.0000       5.614784       152.7860 
 729   0.0000       5.625299       153.0722 
 730   0.0000       5.639060       153.4466 
 731   0.0000       5.649958       153.7432 
 732   0.0000       5.661130       154.0472 
 733   0.0000       5.670956       154.3146 
 734   0.0000       5.687601       154.7675 
 735   0.0000       5.719888       155.6461 
 736   0.0000       5.750516       156.4795 
 737   0.0000       5.753398       156.5579 
 738   0.0000       5.777131       157.2037 
 739   0.0000       5.809389       158.0815 
 740   0.0000       5.877928       159.9465 
 741   0.0000       5.893751       160.3771 
 742   0.0000       5.910894       160.8436 
 743   0.0000       5.932001       161.4180 
 744   0.0000       5.955240       162.0503 
 745   0.0000       5.976262       162.6224 
 746   0.0000       6.004801       163.3989 
 747   0.0000       6.019613       163.8020 
 748   0.0000       6.066353       165.0739 
 749   0.0000       6.138634       167.0407 
 750   0.0000       6.193472       168.5330 
 751   0.0000       6.217775       169.1943 
 752   0.0000       6.225514       169.4048 
 753   0.0000       6.241005       169.8264 
 754   0.0000       6.349801       172.7869 
 755   0.0000       6.397469       174.0840 
 756   0.0000       6.404979       174.2883 
 757   0.0000       6.473922       176.1644 
 758   0.0000       6.496273       176.7726 
 759   0.0000       6.553977       178.3428 
 760   0.0000       6.646031       180.8477 
 761   0.0000       6.882886       187.2929 
 762   0.0000       7.099697       193.1926 
 763   0.0000      23.805140       647.7708 
 764   0.0000      23.850621       649.0084 
 765   0.0000      23.875221       649.6778 
 766   0.0000      23.942360       651.5047 
 767   0.0000      23.950327       651.7215 
 768   0.0000      24.006526       653.2508 
 769   0.0000      24.103609       655.8926 
 770   0.0000      24.271176       660.4523 
 771   0.0000      24.409993       664.2297 
 772   0.0000      24.503546       666.7754 
 773   0.0000      24.589964       669.1269 
 774   0.0000      33.037736       899.0025 
 775   0.0000      33.733333       917.9307 
 776   0.0000      33.903363       922.5574 
 777   0.0000      35.081082       954.6048 
 778   0.0000      35.267935       959.6893 
 779   0.0000      35.404840       963.4147 
 780   0.0000      43.577478      1185.8035 
 781   0.0000     106.045046      2885.6324 
 782   0.0000     118.329522      3219.9100 

                    ********************************
                    * MULLIKEN POPULATION ANALYSIS *
                    ********************************

-----------------------
MULLIKEN ATOMIC CHARGES
-----------------------
   0 C :    0.257799
   1 C :   -0.213463
   2 C :    0.034144
   3 C :    0.005909
   4 H :   -0.168453
   5 H :   -0.024003
   6 H :   -0.014912
   7 H :   -0.106046
   8 N :    0.036111
   9 C :    0.598530
  10 C :    0.003031
  11 N :    0.180394
  12 C :    0.074582
  13 C :    0.045321
  14 C :   -0.163535
  15 H :   -0.033156
  16 H :   -0.036281
  17 C :    0.023183
  18 H :   -0.101350
  19 H :   -0.009307
  20 Pd:    0.144909
  21 C :   -0.173741
  22 H :    0.029154
  23 H :    0.029597
  24 H :    0.061004
  25 I :   -0.479421
Sum of atomic charges:    0.0000000

--------------------------------
MULLIKEN REDUCED ORBITAL CHARGES
--------------------------------
  0 C s       :     2.962689  s :     2.962689
      pz      :     0.808976  p :     2.734803
      px      :     0.948921
      py      :     0.976906
      dz2     :    -0.018711  d :     0.032271
      dxz     :     0.005375
      dyz     :     0.045222
      dx2y2   :     0.089357
      dxy     :    -0.088972
      f0      :     0.001855  f :     0.012437
      f+1     :     0.000837
      f-1     :     0.000999
      f+2     :     0.000530
      f-2     :     0.001738
      f+3     :     0.002374
      f-3     :     0.004106
  1 C s       :     3.488496  s :     3.488496
      pz      :     0.973279  p :     2.670089
      px      :     0.833571
      py      :     0.863239
      dz2     :     0.004488  d :     0.046762
      dxz     :     0.016055
      dyz     :     0.015068
      dx2y2   :    -0.017014
      dxy     :     0.028166
      f0      :     0.001472  f :     0.008116
      f+1     :     0.000746
      f-1     :     0.000749
      f+2     :     0.000837
      f-2     :     0.000384
      f+3     :     0.001555
      f-3     :     0.002372
  2 C s       :     3.472514  s :     3.472514
      pz      :     0.852265  p :     2.464553
      px      :     0.694574
      py      :     0.917714
      dz2     :    -0.002680  d :     0.020474
      dxz     :     0.011300
      dyz     :    -0.000874
      dx2y2   :     0.020214
      dxy     :    -0.007485
      f0      :     0.001469  f :     0.008315
      f+1     :     0.000685
      f-1     :     0.000717
      f+2     :     0.000929
      f-2     :     0.000585
      f+3     :     0.001532
      f-3     :     0.002398
  3 C s       :     3.573391  s :     3.573391
      pz      :     0.996589  p :     2.392150
      px      :     0.612362
      py      :     0.783199
      dz2     :     0.006343  d :     0.020252
      dxz     :     0.016369
      dyz     :     0.015344
      dx2y2   :     0.002848
      dxy     :    -0.020651
      f0      :     0.001500  f :     0.008298
      f+1     :     0.000785
      f-1     :     0.000734
      f+2     :     0.000357
      f-2     :     0.000990
      f+3     :     0.001523
      f-3     :     0.002409
  4 H s       :     1.090263  s :     1.090263
      pz      :     0.010116  p :     0.076004
      px      :     0.004183
      py      :     0.061705
      dz2     :     0.000185  d :     0.002186
      dxz     :     0.000551
      dyz     :     0.000024
      dx2y2   :     0.000564
      dxy     :     0.000861
  5 H s       :     0.991684  s :     0.991684
      pz      :     0.019513  p :     0.030309
      px      :     0.005830
      py      :     0.004966
      dz2     :     0.000149  d :     0.002010
      dxz     :     0.000186
      dyz     :     0.000408
      dx2y2   :     0.000787
      dxy     :     0.000481
  6 H s       :     1.006605  s :     1.006605
      pz      :     0.011964  p :     0.006348
      px      :    -0.004092
      py      :    -0.001524
      dz2     :     0.000148  d :     0.001959
      dxz     :     0.000124
      dyz     :     0.000394
      dx2y2   :     0.000733
      dxy     :     0.000560
  7 H s       :     1.096689  s :     1.096689
      pz      :     0.020748  p :     0.007248
      px      :    -0.005370
      py      :    -0.008129
      dz2     :     0.000172  d :     0.002108
      dxz     :     0.000611
      dyz     :     0.000013
      dx2y2   :     0.000425
      dxy     :     0.000888
  8 N s       :     3.342794  s :     3.342794
      pz      :     1.211940  p :     3.512897
      px      :     1.051308
      py      :     1.249649
      dz2     :    -0.011931  d :     0.103795
      dxz     :     0.026247
      dyz     :     0.025743
      dx2y2   :     0.007719
      dxy     :     0.056017
      f0      :     0.000758  f :     0.004404
      f+1     :     0.000451
      f-1     :     0.000355
      f+2     :     0.000514
      f-2     :     0.000362
      f+3     :     0.000907
      f-3     :     0.001057
  9 C s       :     3.058084  s :     3.058084
      pz      :     0.863341  p :     2.308888
      px      :     0.897408
      py      :     0.548139
      dz2     :    -0.018166  d :     0.019926
      dxz     :     0.045756
      dyz     :     0.003248
      dx2y2   :     0.136246
      dxy     :    -0.147157
      f0      :     0.002264  f :     0.014573
      f+1     :     0.001187
      f-1     :     0.000987
      f+2     :     0.001741
      f-2     :     0.000786
      f+3     :     0.002796
      f-3     :     0.004812
 10 C s       :     3.374667  s :     3.374667
      pz      :     0.851417  p :     2.546672
      px      :     0.894541
      py      :     0.800714
      dz2     :    -0.020104  d :     0.061129
      dxz     :     0.011043
      dyz     :     0.050385
      dx2y2   :    -0.072913
      dxy     :     0.092717
      f0      :     0.002255  f :     0.014501
      f+1     :     0.001029
      f-1     :     0.001144
      f+2     :     0.000993
      f-2     :     0.001561
      f+3     :     0.002942
      f-3     :     0.004577
 11 N s       :     3.231677  s :     3.231677
      pz      :     1.230898  p :     3.495597
      px      :     1.369208
      py      :     0.895491
      dz2     :    -0.011482  d :     0.087862
      dxz     :     0.023961
      dyz     :     0.038278
      dx2y2   :    -0.017358
      dxy     :     0.054463
      f0      :     0.000776  f :     0.004471
      f+1     :     0.000337
      f-1     :     0.000504
      f+2     :     0.000307
      f-2     :     0.000578
      f+3     :     0.000934
      f-3     :     0.001035
 12 C s       :     3.063833  s :     3.063833
      pz      :     0.840427  p :     2.693738
      px      :     0.962489
      py      :     0.890822
      dz2     :    -0.013740  d :     0.155364
      dxz     :     0.011613
      dyz     :     0.026201
      dx2y2   :    -0.009083
      dxy     :     0.140373
      f0      :     0.001865  f :     0.012484
      f+1     :     0.000800
      f-1     :     0.001067
      f+2     :     0.001451
      f-2     :     0.000856
      f+3     :     0.002582
      f-3     :     0.003863
 13 C s       :     3.485245  s :     3.485245
      pz      :     0.845243  p :     2.437444
      px      :     0.888782
      py      :     0.703420
      dz2     :    -0.001391  d :     0.023687
      dxz     :    -0.006492
      dyz     :     0.015240
      dx2y2   :     0.016255
      dxy     :     0.000075
      f0      :     0.001466  f :     0.008302
      f+1     :     0.000733
      f-1     :     0.000667
      f+2     :     0.000319
      f-2     :     0.001192
      f+3     :     0.001628
      f-3     :     0.002298
 14 C s       :     3.492212  s :     3.492212
      pz      :     0.974656  p :     2.632497
      px      :     0.865516
      py      :     0.792324
      dz2     :     0.002748  d :     0.030679
      dxz     :     0.006526
      dyz     :     0.017954
      dx2y2   :     0.010369
      dxy     :    -0.006918
      f0      :     0.001490  f :     0.008148
      f+1     :     0.000716
      f-1     :     0.000788
      f+2     :     0.000617
      f-2     :     0.000629
      f+3     :     0.001655
      f-3     :     0.002253
 15 H s       :     1.015610  s :     1.015610
      pz      :    -0.002909  p :     0.015293
      px      :    -0.004623
      py      :     0.022824
      dz2     :     0.000175  d :     0.002254
      dxz     :     0.000273
      dyz     :     0.000347
      dx2y2   :     0.000936
      dxy     :     0.000523
 16 H s       :     1.004365  s :     1.004365
      pz      :     0.019792  p :     0.029906
      px      :     0.009105
      py      :     0.001009
      dz2     :     0.000150  d :     0.002011
      dxz     :     0.000089
      dyz     :     0.000510
[...]
      px      :     0.943616
      py      :     0.874850
      dz2     :     0.069834  d :     0.819687
      dxz     :     0.120932
      dyz     :     0.091408
      dx2y2   :     0.221111
      dxy     :     0.316404
      f0      :     0.004096  f :     0.064231
      f+1     :     0.004438
      f-1     :     0.005318
      f+2     :     0.008716
      f-2     :     0.004736
      f+3     :     0.014939
      f-3     :     0.021987
 13 C s       :     2.650162  s :     2.650162
      pz      :     0.673543  p :     2.559135
      px      :     0.926881
      py      :     0.958711
      dz2     :     0.059075  d :     0.686250
      dxz     :     0.036634
      dyz     :     0.140243
      dx2y2   :     0.270585
      dxy     :     0.179713
      f0      :     0.002636  f :     0.044209
      f+1     :     0.003290
      f-1     :     0.003763
      f+2     :     0.002201
      f-2     :     0.007474
      f+3     :     0.010013
      f-3     :     0.014832
 14 C s       :     2.646266  s :     2.646266
      pz      :     0.731523  p :     2.602900
      px      :     0.944076
      py      :     0.927302
      dz2     :     0.059660  d :     0.646740
      dxz     :     0.095434
      dyz     :     0.051591
      dx2y2   :     0.228825
      dxy     :     0.211229
      f0      :     0.002559  f :     0.043119
      f+1     :     0.003988
      f-1     :     0.003456
      f+2     :     0.004173
      f-2     :     0.004072
      f+3     :     0.010399
      f-3     :     0.014471
 15 H s       :     0.674872  s :     0.674872
      pz      :     0.070712  p :     0.307296
      px      :     0.137823
      py      :     0.098760
      dz2     :     0.002871  d :     0.028137
      dxz     :     0.003122
      dyz     :     0.004248
      dx2y2   :     0.008546
      dxy     :     0.009349
 16 H s       :     0.705736  s :     0.705736
      pz      :     0.075137  p :     0.258985
      px      :     0.068555
      py      :     0.115293
      dz2     :     0.002705  d :     0.028098
      dxz     :     0.001096
      dyz     :     0.006976
      dx2y2   :     0.008629
      dxy     :     0.008693
 17 C s       :     2.629816  s :     2.629816
      pz      :     0.733147  p :     2.575306
      px      :     0.920414
      py      :     0.921745
      dz2     :     0.064224  d :     0.670731
      dxz     :     0.085264
      dyz     :     0.072504
      dx2y2   :     0.198133
      dxy     :     0.250607
      f0      :     0.002554  f :     0.043376
      f+1     :     0.003988
      f-1     :     0.003576
      f+2     :     0.006124
      f-2     :     0.002481
      f+3     :     0.010231
      f-3     :     0.014423
 18 H s       :     0.688486  s :     0.688486
      pz      :     0.073637  p :     0.283192
      px      :     0.084663
      py      :     0.124892
      dz2     :     0.002733  d :     0.028664
      dxz     :     0.002833
      dyz     :     0.005514
      dx2y2   :     0.008824
      dxy     :     0.008760
 19 H s       :     0.705731  s :     0.705731
      pz      :     0.067613  p :     0.253514
      px      :     0.123754
      py      :     0.062148
      dz2     :     0.002726  d :     0.027519
      dxz     :     0.007007
      dyz     :     0.000110
      dx2y2   :     0.008670
      dxy     :     0.009006
 20 Pds       :     2.084455  s :     2.084455
      pz      :     2.050478  p :     6.511548
      px      :     2.273241
      py      :     2.187829
      dz2     :     1.931581  d :     8.927586
      dxz     :     1.947994
      dyz     :     1.947023
      dx2y2   :     1.357968
      dxy     :     1.743021
      f0      :     0.001536  f :     0.037639
      f+1     :     0.004845
      f-1     :     0.005015
      f+2     :     0.002292
      f-2     :     0.000770
      f+3     :     0.014752
      f-3     :     0.008429
      g0      :     0.000079  g :     0.000625
      g+1     :     0.000044
      g-1     :     0.000040
      g+2     :     0.000106
      g-2     :     0.000049
      g+3     :     0.000025
      g-3     :     0.000015
      g+4     :     0.000118
      g-4     :     0.000148
 21 C s       :     2.730403  s :     2.730403
      pz      :     0.950587  p :     2.846844
      px      :     0.966290
      py      :     0.929967
      dz2     :     0.092833  d :     0.477738
      dxz     :     0.058171
      dyz     :     0.082696
      dx2y2   :     0.127101
      dxy     :     0.116936
      f0      :     0.001121  f :     0.023207
      f+1     :     0.004781
      f-1     :     0.004517
      f+2     :     0.001300
      f-2     :     0.004439
      f+3     :     0.003866
      f-3     :     0.003183
 22 H s       :     0.736245  s :     0.736245
      pz      :     0.125030  p :     0.349703
      px      :     0.103688
      py      :     0.120985
      dz2     :     0.008764  d :     0.029473
      dxz     :     0.006745
      dyz     :     0.007648
      dx2y2   :     0.003832
      dxy     :     0.002484
 23 H s       :     0.736265  s :     0.736265
      pz      :     0.125045  p :     0.349646
      px      :     0.103561
      py      :     0.121040
      dz2     :     0.008765  d :     0.029474
      dxz     :     0.006747
      dyz     :     0.007654
      dx2y2   :     0.003829
      dxy     :     0.002479
 24 H s       :     0.740031  s :     0.740031
      pz      :     0.087955  p :     0.399985
      px      :     0.162128
      py      :     0.149902
      dz2     :     0.002678  d :     0.029794
      dxz     :     0.009118
      dyz     :     0.000130
      dx2y2   :     0.007932
      dxy     :     0.009937
 25 I s       :     3.679940  s :     3.679940
      pz      :     3.875486  p :    11.096851
      px      :     3.522342
      py      :     3.699023
      dz2     :     2.023826  d :    10.149324
      dxz     :     2.021021
      dyz     :     2.004249
      dx2y2   :     2.045819
      dxy     :     2.054409
      f0      :     0.001130  f :     0.010348
      f+1     :     0.001517
      f-1     :     0.000308
      f+2     :     0.001551
      f-2     :     0.000530
      f+3     :     0.002839
      f-3     :     0.002473


                      *****************************
                      * MAYER POPULATION ANALYSIS *
                      *****************************

  NA   - Mulliken gross atomic population
  ZA   - Total nuclear charge
  QA   - Mulliken gross atomic charge
  VA   - Mayer's total valence
  BVA  - Mayer's bonded valence
  FA   - Mayer's free valence

  ATOM       NA         ZA         QA         VA         BVA        FA
  0 C      5.7422     6.0000     0.2578     3.3739     3.3739     0.0000
  1 C      6.2135     6.0000    -0.2135     3.1208     3.1208     0.0000
  2 C      5.9659     6.0000     0.0341     2.9610     2.9610     0.0000
  3 C      5.9941     6.0000     0.0059     2.5001     2.5001    -0.0000
  4 H      1.1685     1.0000    -0.1685     1.0941     1.0941    -0.0000
  5 H      1.0240     1.0000    -0.0240     0.9490     0.9490     0.0000
  6 H      1.0149     1.0000    -0.0149     0.8947     0.8947    -0.0000
  7 H      1.1060     1.0000    -0.1060     0.8617     0.8617     0.0000
  8 N      6.9639     7.0000     0.0361     2.9644     2.9644     0.0000
  9 C      5.4015     6.0000     0.5985     2.4193     2.4193    -0.0000
 10 C      5.9970     6.0000     0.0030     3.3697     3.3697    -0.0000
 11 N      6.8196     7.0000     0.1804     2.9917     2.9917     0.0000
 12 C      5.9254     6.0000     0.0746     3.7542     3.7542    -0.0000
 13 C      5.9547     6.0000     0.0453     2.9621     2.9621    -0.0000
 14 C      6.1635     6.0000    -0.1635     2.9927     2.9927     0.0000
 15 H      1.0332     1.0000    -0.0332     0.9532     0.9532    -0.0000
 16 H      1.0363     1.0000    -0.0363     0.9527     0.9527     0.0000
 17 C      5.9768     6.0000     0.0232     2.4584     2.4584     0.0000
 18 H      1.1013     1.0000    -0.1013     0.8667     0.8667    -0.0000
 19 H      1.0093     1.0000    -0.0093     0.8859     0.8859    -0.0000
 20 Pd    17.8551    18.0000     0.1449     2.3154     2.3154     0.0000
 21 C      6.1737     6.0000    -0.1737     3.7017     3.7017     0.0000
 22 H      0.9708     1.0000     0.0292     1.1614     1.1614     0.0000
 23 H      0.9704     1.0000     0.0296     1.1619     1.1619     0.0000
 24 H      0.9390     1.0000     0.0610     1.1643     1.1643    -0.0000
 25 I     25.4794    25.0000    -0.4794     0.9110     0.9110     0.0000

  Mayer bond orders larger than 0.100000
B(  0-C ,  1-C ) :   1.1729 B(  0-C ,  3-C ) :  -0.1209 B(  0-C ,  4-H ) :   1.0282 
B(  0-C ,  8-N ) :   1.5373 B(  0-C , 20-Pd) :  -0.1662 B(  0-C , 25-I ) :  -0.1151 
B(  1-C ,  2-C ) :   1.1311 B(  1-C ,  5-H ) :   1.1130 B(  1-C ,  6-H ) :  -0.1061 
B(  1-C ,  8-N ) :  -0.1363 B(  1-C , 20-Pd) :   0.1359 B(  2-C ,  3-C ) :   0.8956 
B(  2-C ,  6-H ) :   1.0991 B(  2-C ,  7-H ) :  -0.1809 B(  2-C ,  8-N ) :   0.1473 
B(  3-C ,  6-H ) :  -0.1004 B(  3-C ,  7-H ) :   1.2565 B(  3-C ,  8-N ) :  -0.2405 
B(  3-C ,  9-C ) :   1.0844 B(  3-C , 10-C ) :  -0.4944 B(  3-C , 20-Pd) :   0.2112 
B(  4-H ,  8-N ) :  -0.1241 B(  4-H , 25-I ) :   0.2688 B(  7-H ,  9-C ) :  -0.1544 
B(  8-N ,  9-C ) :   1.2537 B(  8-N , 10-C ) :   0.4151 B(  8-N , 20-Pd) :   0.1890 
B(  9-C , 10-C ) :   1.0075 B(  9-C , 17-C ) :  -0.5666 B(  9-C , 20-Pd) :  -0.1153 
B( 10-C , 11-N ) :   1.6472 B( 10-C , 17-C ) :   1.1566 B( 10-C , 18-H ) :  -0.1460 
B( 10-C , 25-I ) :  -0.1109 B( 11-N , 12-C ) :   1.7115 B( 11-N , 13-C ) :   0.1575 
B( 11-N , 14-C ) :  -0.1251 B( 11-N , 17-C ) :  -0.2307 B( 11-N , 20-Pd) :   0.1897 
B( 11-N , 21-C ) :  -0.1089 B( 12-C , 14-C ) :   1.1474 B( 12-C , 15-H ) :   1.1054 
B( 12-C , 17-C ) :  -0.1170 B( 13-C , 14-C ) :   1.1290 B( 13-C , 17-C ) :   0.9286 
B( 13-C , 18-H ) :  -0.1867 B( 13-C , 19-H ) :   1.0963 B( 14-C , 15-H ) :  -0.1247 
B( 14-C , 16-H ) :   1.1141 B( 14-C , 19-H ) :  -0.1136 B( 17-C , 18-H ) :   1.2442 
B( 17-C , 20-Pd) :   0.1889 B( 20-Pd, 21-C ) :   0.7107 B( 20-Pd, 25-I ) :   0.8649 
B( 21-C , 22-H ) :   1.0302 B( 21-C , 23-H ) :   1.0304 B( 21-C , 24-H ) :   1.0151 


-------
TIMINGS
-------

Total SCF time: 0 days 0 hours 1 min 51 sec 

Total time                  ....     111.646 sec
Sum of individual times     ....     110.628 sec  ( 99.1%)

Fock matrix formation       ....     100.052 sec  ( 89.6%)
  XC integration            ....       9.586 sec  (  9.6% of F)
    Basis function eval.    ....       1.651 sec  ( 17.2% of XC)
    Density eval.           ....       3.232 sec  ( 33.7% of XC)
    XC-Functional eval.     ....       0.103 sec  (  1.1% of XC)
    XC-Potential eval.      ....       3.229 sec  ( 33.7% of XC)
Diagonalization             ....       4.196 sec  (  3.8%)
Density matrix formation    ....       0.173 sec  (  0.2%)
Population analysis         ....       0.136 sec  (  0.1%)
Initial guess               ....       2.823 sec  (  2.5%)
Orbital Transformation      ....       0.000 sec  (  0.0%)
Orbital Orthonormalization  ....       0.000 sec  (  0.0%)
DIIS solution               ....       2.185 sec  (  2.0%)
Grid generation             ....       1.064 sec  (  1.0%)


           ************************************************************
           *        Program running with 24 parallel MPI-processes    *
           *              working on a common directory               *
           ************************************************************

------------------------------------------------------------------------------
                                ORCA  MP2 
------------------------------------------------------------------------------

Freezing NCore=34 chemical core electrons

-------------
RI-MP2 ENERGY
-------------
Dimension of the basis                    ...  783
Memory devoted to MP2                     ... 5000 MB   
Data format for buffers                   ... DOUBLE
Compression type for matrix containers    ... UNCOMPRESSED
Scaling for aa/bb pairs                   ...   4.000e-01
Scaling for ab pairs                      ...   4.700e-01
Overall scaling of the MP2 energy         ...   1.000e+00
Calculating two index integrals           ... done (    0.036 sec)
Cholesky decomposition of V**-1           ... done (    0.419 sec)

-----------------
RI-TRANSFORMATION (AUX index driven)
-----------------

Dimension of the orbital-basis         ... 783
Dimension of the aux-basis             ... 2001
Transformation of internal/external MOs...   17-  66 to   67- 782
Number Format for Storage              ... Double (8 Byte)
Integral mode                          ... Direct

First Phase: integral generation and transformation of MO indices
  Aux angular momentum 0               ... done (    0.141 sec)
  Aux angular momentum 1               ... done (    0.281 sec)
  Aux angular momentum 2               ... done (    0.361 sec)
  Aux angular momentum 3               ... done (    0.405 sec)
  Aux angular momentum 4               ... done (    0.123 sec)
  Aux angular momentum 5               ... done (    0.137 sec)
  Aux angular momentum 6               ... done (    0.223 sec)
Closing buffer VIA ( 0.53 GB; CompressionRatio= 1.00)
  Phase 1 completed in     1.780 sec
Second Phase: sorting and transformation of aux index

IA-Transformation
Memory available                       ... 4921 MB 
Max. # MO pairs treated in a batch     ... 3    
# of internal orbitals                 ... 50
# batches for internal orbitals        ... 1
Closing buffer IAV ( 0.03 GB; CompressionRatio= 1.00)
(ia|v) transformation done in     0.474 sec

  Phase 2 completed in     1.023 sec
RI-Integral transformation completed in     2.819 sec
Opening buffers                              ... done

Starting loop over batches of integrals:

Operator 0  - window                       ... ( 17- 66)x( 67-782)
Operator 0  - Memory available             ...  5000 MB
Operator 0  - Memory needed per MO         ...  10.9 MB
Operator 0  - Number of orbitals per batch ... 3
Operator 0  - Number of batches            ... 1

OPERATOR  0   PASS   0:  MOs    17 ...   19 +   20 ...   22 +   23 ...   25 +   26 ...   28
                            +   29 ...   31 +   32 ...   34 +   35 ...   37 +   38 ...   40
                            +   41 ...   43 +   44 ...   46 +   47 ...   49 +   50 ...   52
                            +   53 ...   55 +   56 ...   58 +   59 ...   61 +   62 ...   64
                            +   65 ...   66
  Reading integrals       ... ok
  Internal MO  19
Time spent in pair loops =     0.314 sec
Deleting buffer (Ka|jb)[aa] ...done

-----------------------------------------------
 RI-MP2 CORRELATION ENERGY:     -1.708116516 Eh
-----------------------------------------------


-------
TIMINGS
-------

Total time                :    9.017 sec
Integral trafo            :    2.832 sec ( 31.4%)
I/O of integrals          :    0.032 sec (  0.4%)
K(i,j) Operators          :    0.222 sec (  2.5%)
T(i,j) pair energies      :    0.030 sec (  0.3%)
V-calculation             :    0.036 sec (  0.4%)
V**(-1/2)                 :    0.419 sec (  4.7%)
Gamma(ia|P)               :    0.000 sec (  0.0%)
Gamma-Trafo               :    0.000 sec (  0.0%)
D(virtual)                :    0.000 sec (  0.0%)
D(internal)               :    0.000 sec (  0.0%)
W(virtual)                :    0.000 sec (  0.0%)
W(internal)               :    0.000 sec (  0.0%)
L(virtual)                :    0.000 sec (  0.0%)
L(internal)               :    0.000 sec (  0.0%)
G(D)                      :    0.000 sec (  0.0%)
G(Z)                      :    0.000 sec (  0.0%)
Z-Vector Solution         :    0.000 sec (  0.0%)
Z-Vector Solution         :    0.000 sec (  0.0%)
3-Index Derivative 
+ Separable RIJ part      :    0.000 sec (  0.0%)
2-Index Derivative 
+ Separable RIJ part      :    0.000 sec (  0.0%)
Separable Gradient (X)    :    0.000 sec (  0.0%)


---------------------------------------
MP2 TOTAL ENERGY:     -960.134740281 Eh
---------------------------------------


-------------------------------------------------------------------------------
                          DFT DISPERSION CORRECTION                            
                                                                               
                              DFTD3 V3.1  Rev 1                                
                          USING Becke-Johnson damping                          
-------------------------------------------------------------------------------
The DSD-BLYP/2013 functional is recognized
Active option DFTDOPT                   ...         4   

molecular C6(AA) [au] = 13563.264635 


            DFT-D V3
 parameters
 s6 scaling factor         :     0.5700 
 a1 scaling factor         :     0.0000 
 s8 scaling factor         :     0.0000 
 a2 scaling factor         :     5.4000 
 ad hoc parameters k1-k3   :    16.0000     1.3333    -4.0000 

 Edisp/kcal,au: -26.052772663049  -0.041517731542 
 E6   /kcal   : -26.052772663 
 E8   /kcal   :  -0.000000000 
 % E8         :   0.000000000 

-------------------------   ----------------
Dispersion correction           -0.041517732
-------------------------   ----------------


-------------------------   --------------------
FINAL SINGLE POINT ENERGY      -960.176258012297
-------------------------   --------------------


                            ***************************************
                            *     ORCA property calculations      *
                            ***************************************


  WARNING: The energy has been calculated at the MP2 level but the densities
           used in the property calculations are still SCF densities
           MP2 response densities have not been calculated 
           use %mp2 Density relaxed end
           or  %mp2 Density unrelaxed end

                                    ---------------------
                                    Active property flags
                                    ---------------------
   (+) Dipole Moment


------------------------------------------------------------------------------
                       ORCA ELECTRIC PROPERTIES CALCULATION
------------------------------------------------------------------------------

Dipole Moment Calculation                       ... on
Quadrupole Moment Calculation                   ... off
Polarizability Calculation                      ... off
GBWName                                         ... MOR11_ed11.gbw
Electron density file                           ... MOR11_ed11.scfp
The origin for moment calculation is the CENTER OF MASS  = (-0.379126, -0.037662 -0.000076)

-------------
DIPOLE MOMENT
-------------
                                X             Y             Z
Electronic contribution:   -213.97850     -39.73618      -0.01925
Nuclear contribution   :    218.94043      41.00073       0.01934
                        -----------------------------------------
Total Dipole Moment    :      4.96193       1.26455       0.00009
                        -----------------------------------------
Magnitude (a.u.)       :      5.12053
Magnitude (Debye)      :     13.01536



--------------------
Rotational spectrum 
--------------------
 
Rotational constants in cm-1:     0.017794     0.008244     0.005640 
Rotational constants in MHz :   533.441148   247.152748   169.085365 

 Dipole components along the rotational axes: 
x,y,z [a.u.] :    -4.964200     1.255610    -0.000180 
x,y,z [Debye]:   -12.617995     3.191506    -0.000457 

 

Timings for individual modules:

Sum of individual times         ...      126.695 sec (=   2.112 min)
GTO integral calculation        ...        4.513 sec (=   0.075 min)   3.6 %
SCF iterations                  ...      112.011 sec (=   1.867 min)  88.4 %
MP2 module                      ...       10.172 sec (=   0.170 min)   8.0 %
                             ****ORCA TERMINATED NORMALLY****
TOTAL RUN TIME: 0 days 0 hours 2 minutes 7 seconds 285 msec
