
                                 *****************
                                 * O   R   C   A *
                                 *****************

           --- An Ab Initio, DFT and Semiempirical electronic structure package ---

                  #######################################################
                  #                        -***-                        #
                  #          Department of theory and spectroscopy      #
                  #               Directorship: Frank Neese             #
                  #        Max Planck Institute fuer Kohlenforschung    #
                  #                Kaiser Wilhelm Platz 1               #
                  #                 D-45470 Muelheim/Ruhr               #
                  #                      Germany                        #
                  #                                                     #
                  #                  All rights reserved                #
                  #                        -***-                        #
                  #######################################################


                         Program Version 4.2.0 -  RELEASE  -


 With contributions from (in alphabetic order):
   Daniel Aravena         : Magnetic Suceptibility
   Michael Atanasov       : Ab Initio Ligand Field Theory (pilot matlab implementation)
   Alexander A. Auer      : GIAO ZORA, VPT2
   Ute Becker             : Parallelization
   Giovanni Bistoni       : ED, misc. LED, open-shell LED, HFLED
   Martin Brehm           : Molecular dynamics
   Dmytro Bykov           : SCF Hessian
   Vijay G. Chilkuri      : MRCI spin determinant printing, contributions to CSF-ICE
   Dipayan Datta          : RHF DLPNO-CCSD density
   Achintya Kumar Dutta   : EOM-CC, STEOM-CC
   Dmitry Ganyushin       : Spin-Orbit,Spin-Spin,Magnetic field MRCI
   Miquel Garcia          : C-PCM Hessian, Gaussian charge scheme
   Yang Guo               : DLPNO-NEVPT2, CIM, IAO-localization
   Andreas Hansen         : Spin unrestricted coupled pair/coupled cluster methods
   Benjamin Helmich-Paris : CASSCF linear response (MC-RPA)
   Lee Huntington         : MR-EOM, pCC
   Robert Izsak           : Overlap fitted RIJCOSX, COSX-SCS-MP3, EOM
   Christian Kollmar      : KDIIS, OOCD, Brueckner-CCSD(T), CCSD density
   Simone Kossmann        : Meta GGA functionals, TD-DFT gradient, OOMP2, MP2 Hessian
   Martin Krupicka        : AUTO-CI
   Lucas Lang             : DCDCAS
   Dagmar Lenk            : GEPOL surface, SMD
   Dimitrios Liakos       : Extrapolation schemes; Compound Job, initial MDCI parallelization
   Dimitrios Manganas     : Further ROCIS development; embedding schemes
   Dimitrios Pantazis     : SARC Basis sets
   Taras Petrenko         : DFT Hessian,TD-DFT gradient, ASA, ECA, R-Raman, ABS, FL, XAS/XES, NRVS
   Peter Pinski           : DLPNO-MP2, DLPNO-MP2 Gradient
   Christoph Reimann      : Effective Core Potentials
   Marius Retegan         : Local ZFS, SOC
   Christoph Riplinger    : Optimizer, TS searches, QM/MM, DLPNO-CCSD(T), (RO)-DLPNO pert. Triples
   Tobias Risthaus        : Range-separated hybrids, TD-DFT gradient, RPA, STAB
   Michael Roemelt        : Original ROCIS implementation
   Masaaki Saitow         : Open-shell DLPNO-CCSD energy and density
   Barbara Sandhoefer     : DKH picture change effects
   Avijit Sen             : IP-ROCIS
   Kantharuban Sivalingam : CASSCF convergence, NEVPT2, FIC-MRCI
   Bernardo de Souza      : ESD, SOC TD-DFT
   Georgi Stoychev        : AutoAux, RI-MP2 NMR
   Willem Van den Heuvel  : Paramagnetic NMR
   Boris Wezisla          : Elementary symmetry handling
   Frank Wennmohs         : Technical directorship


 We gratefully acknowledge several colleagues who have allowed us to
 interface, adapt or use parts of their codes:
   Stefan Grimme, W. Hujo, H. Kruse,             : VdW corrections, initial TS optimization,
                  C. Bannwarth                     DFT functionals, gCP, sTDA/sTD-DF
   Ed Valeev, F. Pavosevic, A. Kumar             : LibInt (2-el integral package), F12 methods
   Garnet Chan, S. Sharma, J. Yang, R. Olivares  : DMRG
   Ulf Ekstrom                                   : XCFun DFT Library
   Mihaly Kallay                                 : mrcc  (arbitrary order and MRCC methods)
   Andreas Klamt, Michael Diedenhofen            : otool_cosmo (COSMO solvation model)
   Jiri Pittner, Ondrej Demel                    : Mk-CCSD
   Frank Weinhold                                : gennbo (NPA and NBO analysis)
   Christopher J. Cramer and Donald G. Truhlar   : smd solvation model
   Lars Goerigk                                  : TD-DFT with DH, B97 family of functionals
   V. Asgeirsson, H. Jonsson                     : NEB implementation
   FAccTs GmbH                                   : IRC, NEB, NEB-TS, Multilevel, MM, QM/MM, CI optimization
   S Lehtola, MJT Oliveira, MAL Marques          : LibXC Library


 Your calculation uses the libint2 library for the computation of 2-el integrals
 For citations please refer to: http://libint.valeyev.net

 Your ORCA version has been built with support for libXC version: 4.2.3
 For citations please refer to: https://tddft.org/programs/libxc/

 This ORCA versions uses:
   CBLAS   interface :  Fast vector & matrix operations
   LAPACKE interface :  Fast linear algebra routines
   SCALAPACK package :  Parallel linear algebra routines


Your calculation utilizes the atom-pairwise dispersion correction
with the Becke-Johnson damping scheme (D3BJ)
Cite in your paper:
S.Grimme, S.Ehrlich, L.Goerigk, J Comput Chem, (2011), 32, 1456–1465 
S.Grimme, J.Antony, S.Ehrlich and H.Krieg, J.Chem.Phys., 132, (2010), 154104 
   

----- Orbital basis set information -----
Your calculation utilizes the basis: def2-TZVPPD
   F. Weigend and R. Ahlrichs, Phys. Chem. Chem. Phys. 7, 3297 (2005).
   D. Rappoport and F. Furche, J. Chem. Phys. 133 134105 (2010).

----- AuxC basis set information -----
Your calculation utilizes the auxiliary basis: def2-TZVPPD/C
   A. Hellweg, C. Hattig, S. Hofener and W. Klopper, Theor. Chem. Acc. 117, 587 (2007).

----- AuxJK basis set information -----
Your calculation utilizes the auxiliary basis: def2/JK
   H-Ba, Hf-Rn: F. Weigend, J. Comput. Chem. 29, 167 (2008).

cite the ECPs for Mo [Def2-ECP] as follows:
Ce-Yb(ecp-28): M. Dolg, H. Stoll, H.Preuss, J. Chem. Phys., 1989, 90, 1730-1734.
Y-Cd(ecp-28), Hf-Hg(ecp-46): D. Andrae,U. Haeussermann, M. Dolg, H. Stoll, H. Preuss, Theor. Chim. Acta, 1990, 77, 123-141.
In-Sb(ecp-28), Tl-Bi(ecp-46): B. Metz, H. Stoll, M. Dolg, J. Chem. Phys., 2000, 113, 2563-2569.
Te-Xe(ecp-28), Po-Rn(ecp-46): K. A. Peterson, D. Figgen, E. Goll, H. Stoll, M. Dolg, J. Chem. Phys., 2003, 119, 11113-11123.
Rb(ecp-28), Cs(ecp-46): T. Leininger, A. Nicklass, W. Kuechle, H. Stoll, M. Dolg, A. Bergner, Chem. Phys. Lett., 1996, 255, 274-280.
Sr(ecp-28), Ba(ecp-46): M. Kaupp, P. V. Schleyer, H. Stoll and H. Preuss, J. Chem. Phys., 1991, 94, 1360-1366.
La(ecp-46): M. Dolg, H. Stoll, A. Savin, H. Preuss, Theor. Chim. Acta, 1989, 75, 173-194.
Lu(ecp-28): X. Cao, M. Dolg, J. Chem. Phys., 2001, 115, 7348-7355.

ECP parameters for Mo [Def2-ECP] have been obtained from:
TURBOMOLE (7.0.2)

================================================================================
                                        WARNINGS
                       Please study these warnings very carefully!
================================================================================


WARNING: No MP2 level density has been requested!
         To caclulate MP2 level properties use
         %mp2 Density relaxed end
         or
         %mp2 Density unrelaxed end
         Otherwise for double-hybrid DFT only the energy is correct!

WARNING: There are different parametrizations of Gershom Martin's DSD-DFs
         for use with and without D3(BJ)!
         You are using the D3(BJ) parametrized version,
         consistent with the 2013 article (S. Kozuch and J. M. L. Martin, JCC 2013, 34, 2327)

WARNING: The frozen-core approximation is turned on by default for 
         the MP2 part of double-hybrid DFT.

INFO   : the flag for use of LIBINT has been found!

================================================================================
                                       INPUT FILE
================================================================================
NAME = MOR18_ed37.in
|  1> #
|  2> # MOR18_ed37 ri-DSD-BLYP/2013-D3BJ/Def2-TZVPPD
|  3> #
|  4> ! rijk ri-dsd-blyp/2013 d3bj def2-tzvppd def2/jk def2-tzvppd/c grid4 nofinalgrid
|  5> 
|  6> *xyz 0 1
|  7> Mo      -0.098072   -0.000113   -0.000040 
|  8> O       -1.958568   -1.162297    2.254949 
|  9> C       -1.292076   -0.726548    1.409379 
| 10> C       -1.290510    1.584735   -0.075353 
| 11> O       -1.955816    2.535729   -0.120716 
| 12> C       -1.292074   -0.856985   -1.334180 
| 13> O       -1.958517   -1.371361   -2.134397 
| 14> C        1.772262   -1.255233   -0.664863 
| 15> C        1.773533   -1.210923    0.743855 
| 16> C        1.772126    0.051067    1.419259 
| 17> C        1.773764    1.248901    0.676519 
| 18> C        1.772513    1.202801   -0.754108 
| 19> C        1.773865   -0.039338   -1.420099 
| 20> H        1.752441   -2.209415   -1.178166 
| 21> H        1.754475   -2.130485    1.316775 
| 22> H        1.752160    0.083668    2.502258 
| 23> H        1.754801    2.204840    1.186440 
| 24> H        1.752821    2.124408   -1.323840 
| 25> H        1.755108   -0.075692   -2.502938 
| 26> *
| 27> 
| 28> %maxcore 5000
| 29> 
| 30> %pal
| 31> nprocs = 24
| 32> end
| 33> 
| 34> 
| 35>                          ****END OF INPUT****
================================================================================

                       ****************************
                       * Single Point Calculation *
                       ****************************

---------------------------------
CARTESIAN COORDINATES (ANGSTROEM)
---------------------------------
  Mo    -0.098072   -0.000113   -0.000040
  O     -1.958568   -1.162297    2.254949
  C     -1.292076   -0.726548    1.409379
  C     -1.290510    1.584735   -0.075353
  O     -1.955816    2.535729   -0.120716
  C     -1.292074   -0.856985   -1.334180
  O     -1.958517   -1.371361   -2.134397
  C      1.772262   -1.255233   -0.664863
  C      1.773533   -1.210923    0.743855
  C      1.772126    0.051067    1.419259
  C      1.773764    1.248901    0.676519
  C      1.772513    1.202801   -0.754108
  C      1.773865   -0.039338   -1.420099
  H      1.752441   -2.209415   -1.178166
  H      1.754475   -2.130485    1.316775
  H      1.752160    0.083668    2.502258
  H      1.754801    2.204840    1.186440
  H      1.752821    2.124408   -1.323840
  H      1.755108   -0.075692   -2.502938

----------------------------
CARTESIAN COORDINATES (A.U.)
----------------------------
  NO LB      ZA    FRAG     MASS         X           Y           Z
   0 Mo   14.0000*   0    95.940   -0.185329   -0.000214   -0.000076
   1 O     8.0000    0    15.999   -3.701157   -2.196423    4.261236
   2 C     6.0000    0    12.011   -2.441670   -1.372977    2.663340
   3 C     6.0000    0    12.011   -2.438710    2.994715   -0.142397
   4 O     8.0000    0    15.999   -3.695957    4.791833   -0.228120
   5 C     6.0000    0    12.011   -2.441666   -1.619467   -2.521235
   6 O     8.0000    0    15.999   -3.701061   -2.591497   -4.033426
   7 C     6.0000    0    12.011    3.349090   -2.372047   -1.256409
   8 C     6.0000    0    12.011    3.351492   -2.288313    1.405682
   9 C     6.0000    0    12.011    3.348833    0.096503    2.682011
  10 C     6.0000    0    12.011    3.351928    2.360081    1.278436
  11 C     6.0000    0    12.011    3.349564    2.272964   -1.425058
  12 C     6.0000    0    12.011    3.352119   -0.074338   -2.683598
  13 H     1.0000    0     1.008    3.311634   -4.175189   -2.226411
  14 H     1.0000    0     1.008    3.315477   -4.026033    2.488344
  15 H     1.0000    0     1.008    3.311103    0.158110    4.728582
  16 H     1.0000    0     1.008    3.316093    4.166544    2.242047
  17 H     1.0000    0     1.008    3.312352    4.014549   -2.501695
  18 H     1.0000    0     1.008    3.316673   -0.143037   -4.729867
* core charge reduced due to ECP

--------------------------------
INTERNAL COORDINATES (ANGSTROEM)
--------------------------------
 Mo     0   0   0     0.000000000000     0.00000000     0.00000000
 O      1   0   0     3.145964463562     0.00000000     0.00000000
 C      2   1   0     1.161497913027     1.23868826     0.00000000
 C      1   2   3     1.984772937874    88.10193366    43.93927960
 O      4   1   2     1.161498800448   178.01893710   135.91090635
 C      1   2   3     1.984892929099    88.08371754   316.29683443
 O      6   1   2     1.161497390748   178.03348865   224.82629337
 C      1   2   3     2.348502737338   118.45449497   223.54759822
 C      8   1   2     1.409415267075    72.60080526   312.03971579
 C      9   8   1     1.431359948778   119.95673606   303.49312701
 C     10   9   8     1.409422464061   120.04287915   359.79840826
 C     11  10   9     1.431370108718   119.95603609     0.19974633
 C     12  11  10     1.409416593952   120.04419158   359.80182932
 H      8   1   2     1.083667906221   126.16393490    66.96579729
 H      9   8   1     1.083602697306   120.11658095   122.20332518
 H     10   9   8     1.083673521111   119.87504897   178.72275538
 H     11  10   9     1.083604352765   120.11522199   178.90572724
 H     12  11  10     1.083670516872   119.87407376   178.72226627
 H     13  12  11     1.083611433257   120.11540082   178.91113676

---------------------------
INTERNAL COORDINATES (A.U.)
---------------------------
 Mo     0   0   0     0.000000000000     0.00000000     0.00000000
 O      1   0   0     5.945011263180     0.00000000     0.00000000
 C      2   1   0     2.194912960741     1.23868826     0.00000000
 C      1   2   3     3.750677290600    88.10193366    43.93927960
 O      4   1   2     2.194914637724   178.01893710   135.91090635
 C      1   2   3     3.750904041154    88.08371754   316.29683443
 O      6   1   2     2.194911973778   178.03348865   224.82629337
 C      1   2   3     4.438026998334   118.45449497   223.54759822
 C      8   1   2     2.663408863740    72.60080526   312.03971579
 C      9   8   1     2.704878302253   119.95673606   303.49312701
 C     10   9   8     2.663422464072   120.04287915   359.79840826
 C     11  10   9     2.704897501757   119.95603609     0.19974633
 C     12  11  10     2.663411371173   120.04419158   359.80182932
 H      8   1   2     2.047835562878   126.16393490    66.96579729
 H      9   8   1     2.047712335886   120.11658095   122.20332518
 H     10   9   8     2.047846173483   119.87504897   178.72275538
 H     11  10   9     2.047715464251   120.11522199   178.90572724
 H     12  11  10     2.047840496292   119.87407376   178.72226627
 H     13  12  11     2.047728844442   120.11540082   178.91113676

---------------------
BASIS SET INFORMATION
---------------------
There are 4 groups of distinct atoms

 Group   1 Type Mo  : 7s7p5d2f1g contracted to 6s4p3d2f1g pattern {211111/4111/311/11/1}
 Group   2 Type O   : 12s7p3d1f contracted to 6s4p3d1f pattern {621111/4111/111/1}
 Group   3 Type C   : 12s6p3d1f contracted to 6s3p3d1f pattern {621111/411/111/1}
 Group   4 Type H   : 5s3p1d contracted to 3s3p1d pattern {311/111/1}

Atom   0Mo   basis set group =>   1
Atom   1O    basis set group =>   2
Atom   2C    basis set group =>   3
Atom   3C    basis set group =>   3
Atom   4O    basis set group =>   2
Atom   5C    basis set group =>   3
Atom   6O    basis set group =>   2
Atom   7C    basis set group =>   3
Atom   8C    basis set group =>   3
Atom   9C    basis set group =>   3
Atom  10C    basis set group =>   3
Atom  11C    basis set group =>   3
Atom  12C    basis set group =>   3
Atom  13H    basis set group =>   4
Atom  14H    basis set group =>   4
Atom  15H    basis set group =>   4
Atom  16H    basis set group =>   4
Atom  17H    basis set group =>   4
Atom  18H    basis set group =>   4
---------------------------------
AUXILIARY/C BASIS SET INFORMATION
---------------------------------
There are 4 groups of distinct atoms

 Group   1 Type Mo  : 8s7p6d5f4g3h1i contracted to 8s7p6d5f4g3h1i pattern {11111111/1111111/111111/11111/1111/111/1}
 Group   2 Type O   : 9s7p6d4f1g contracted to 9s7p5d4f1g pattern {111111111/1111111/21111/1111/1}
 Group   3 Type C   : 9s7p6d4f1g contracted to 9s7p5d4f1g pattern {111111111/1111111/21111/1111/1}
 Group   4 Type H   : 5s4p3d1f contracted to 5s4p3d1f pattern {11111/1111/111/1}

Atom   0Mo   basis set group =>   1
Atom   1O    basis set group =>   2
Atom   2C    basis set group =>   3
Atom   3C    basis set group =>   3
Atom   4O    basis set group =>   2
Atom   5C    basis set group =>   3
Atom   6O    basis set group =>   2
Atom   7C    basis set group =>   3
Atom   8C    basis set group =>   3
Atom   9C    basis set group =>   3
Atom  10C    basis set group =>   3
Atom  11C    basis set group =>   3
Atom  12C    basis set group =>   3
Atom  13H    basis set group =>   4
Atom  14H    basis set group =>   4
Atom  15H    basis set group =>   4
Atom  16H    basis set group =>   4
Atom  17H    basis set group =>   4
Atom  18H    basis set group =>   4
----------------------------------
AUXILIARY/JK BASIS SET INFORMATION
----------------------------------
There are 4 groups of distinct atoms

 Group   1 Type Mo  : 13s12p10d9f6g3h2i contracted to 11s10p9d8f6g3h2i pattern {31111111111/3111111111/211111111/21111111/111111/111/11}
 Group   2 Type O   : 14s10p6d2f1g contracted to 10s8p4d2f1g pattern {5111111111/31111111/3111/11/1}
 Group   3 Type C   : 14s10p6d2f1g contracted to 10s8p5d1f1g pattern {5111111111/31111111/21111/2/1}
 Group   4 Type H   : 4s2p2d contracted to 2s2p2d pattern {31/11/11}

Atom   0Mo   basis set group =>   1
Atom   1O    basis set group =>   2
Atom   2C    basis set group =>   3
Atom   3C    basis set group =>   3
Atom   4O    basis set group =>   2
Atom   5C    basis set group =>   3
Atom   6O    basis set group =>   2
Atom   7C    basis set group =>   3
Atom   8C    basis set group =>   3
Atom   9C    basis set group =>   3
Atom  10C    basis set group =>   3
Atom  11C    basis set group =>   3
Atom  12C    basis set group =>   3
Atom  13H    basis set group =>   4
Atom  14H    basis set group =>   4
Atom  15H    basis set group =>   4
Atom  16H    basis set group =>   4
Atom  17H    basis set group =>   4
Atom  18H    basis set group =>   4
-------------------------
ECP PARAMETER INFORMATION
-------------------------

 Group 1, Type Mo ECP Def2-ECP (replacing 28 core electrons, lmax=3)

Atom   0Mo   ECP group =>   1



           ************************************************************
           *        Program running with 24 parallel MPI-processes    *
           *              working on a common directory               *
           ************************************************************
------------------------------------------------------------------------------
                           ORCA GTO INTEGRAL CALCULATION
                           -- RI-GTO INTEGRALS CHOSEN --
------------------------------------------------------------------------------

                         BASIS SET STATISTICS AND STARTUP INFO

Gaussian basis set:
 # of primitive gaussian shells          ...  343
 # of primitive gaussian functions       ...  823
 # of contracted shells                  ...  217
 # of contracted basis functions         ...  611
 Highest angular momentum                ...    4
 Maximum contraction depth               ...    6
Auxiliary gaussian basis set:
 # of primitive gaussian shells          ...  499
 # of primitive gaussian functions       ... 1559
 # of contracted shells                  ...  385
 # of contracted aux-basis functions     ... 1269
 Highest angular momentum                ...    6
 Maximum contraction depth               ...    5
Ratio of auxiliary to basis functions    ...  2.08
Integral package used                  ... LIBINT
 One Electron integrals                  
   ECP integrals                         ... done
 Ordering auxiliary basis shells         ... done
 Integral threshhold             Thresh  ...  1.000e-10
 Primitive cut-off               TCut    ...  1.000e-11
 Pre-screening matrix                    ... done
 Shell pair data                         ... 
 Ordering of the shell pairs             ... done (   0.004 sec) 21290 of 23653 pairs
 Determination of significant pairs      ... done (   0.000 sec)
 Creation of shell pair data             ... done (   0.002 sec)
 Storage of shell pair data              ... done (   0.036 sec)
 Shell pair data done in (   0.042 sec)
 Computing two index integrals           ... done
 Cholesky decomposition of the V-matrix  ... done


Timings:
 Total evaluation time                   ...   2.236 sec (  0.037 min)
 One electron matrix time                ...   1.738 sec (  0.029 min) = 77.7%
 Schwartz matrix evaluation time         ...   0.262 sec (  0.004 min) = 11.7%
 Two index repulsion integral time       ...   0.093 sec (  0.002 min) =  4.1%
 Cholesky decomposition of V             ...   0.071 sec (  0.001 min) =  3.2%
 Three index repulsion integral time     ...   0.000 sec (  0.000 min) =  0.0%



           ************************************************************
           *        Program running with 24 parallel MPI-processes    *
           *              working on a common directory               *
           ************************************************************
-------------------------------------------------------------------------------
                                 ORCA SCF
-------------------------------------------------------------------------------

------------
SCF SETTINGS
------------
Hamiltonian:
 Density Functional     Method          .... DFT(GTOs)
 Exchange Functional    Exchange        .... B88
   X-Alpha parameter    XAlpha          ....  0.666667
   Becke's b parameter  XBeta           ....  0.004200
 Correlation Functional Correlation     .... LYP
 LDA part of GGA corr.  LDAOpt          .... VWN-5
 Gradients option       PostSCFGGA      .... off
 Hybrid DFT is turned on
   Fraction HF Exchange ScalHFX         ....  0.710000
   Scaling of DF-GGA-X  ScalDFX         ....  0.290000
   Scaling of DF-GGA-C  ScalDFC         ....  0.540000
   Scaling of DF-LDA-C  ScalLDAC        ....  0.540000
   Perturbative correction              ....  1.000000
   Density functional embedding theory  .... OFF
 RI-approximation to the Coulomb term is turned on
   Number of auxiliary basis functions  .... 1269
   RI-JK (J+K treated both via RI)      .... on


General Settings:
 Integral files         IntName         .... MOR18_ed37
 Hartree-Fock type      HFTyp           .... RHF
 Total Charge           Charge          ....    0
 Multiplicity           Mult            ....    1
 Number of Electrons    NEL             ....   98
 Basis Dimension        Dim             ....  611
 Nuclear Repulsion      ENuc            ....    825.0254848324 Eh

Convergence Acceleration:
 DIIS                   CNVDIIS         .... on
   Start iteration      DIISMaxIt       ....    12
   Startup error        DIISStart       ....  0.200000
   # of expansion vecs  DIISMaxEq       ....     5
   Bias factor          DIISBfac        ....   1.050
   Max. coefficient     DIISMaxC        ....  10.000
 Newton-Raphson         CNVNR           .... off
 SOSCF                  CNVSOSCF        .... off
 Level Shifting         CNVShift        .... on
   Level shift para.    LevelShift      ....    0.2500
   Turn off err/grad.   ShiftErr        ....    0.0010
 Zerner damping         CNVZerner       .... off
 Static damping         CNVDamp         .... on
   Fraction old density DampFac         ....    0.7000
   Max. Damping (<1)    DampMax         ....    0.9800
   Min. Damping (>=0)   DampMin         ....    0.0000
   Turn off err/grad.   DampErr         ....    0.1000
 Fernandez-Rico         CNVRico         .... off

SCF Procedure:
 Maximum # iterations   MaxIter         ....   125
 SCF integral mode      SCFMode         .... Direct
   Integral package                     .... LIBINT
 Reset frequency        DirectResetFreq ....    20
 Integral Threshold     Thresh          ....  1.000e-10 Eh
 Primitive CutOff       TCut            ....  1.000e-11 Eh

Convergence Tolerance:
 Convergence Check Mode ConvCheckMode   .... Total+1el-Energy
 Convergence forced     ConvForced      .... 0
 Energy Change          TolE            ....  1.000e-06 Eh
 1-El. energy change                    ....  1.000e-03 Eh
 DIIS Error             TolErr          ....  1.000e-06


Diagonalization of the overlap matrix:
Smallest eigenvalue                        ... 5.320e-07
Time for diagonalization                   ...    0.065 sec
Threshold for overlap eigenvalues          ... 1.000e-08
Number of eigenvalues below threshold      ... 0
Time for construction of square roots      ...    0.062 sec
Total time needed                          ...    0.129 sec

-------------------
DFT GRID GENERATION
-------------------

General Integration Accuracy     IntAcc      ...  4.670
Radial Grid Type                 RadialGrid  ... Gauss-Chebyshev
Angular Grid (max. acc.)         AngularGrid ... Lebedev-302
Angular grid pruning method      GridPruning ... 3 (G Style)
Weight generation scheme         WeightScheme... Becke
Basis function cutoff            BFCut       ...    1.0000e-10
Integration weight cutoff        WCut        ...    1.0000e-14
Grids for H and He will be reduced by one unit

# of grid points (after initial pruning)     ... 105506 (   0.0 sec)
# of grid points (after weights+screening)   ...  95094 (   0.0 sec)
nearest neighbour list constructed           ...    0.0 sec
Grid point re-assignment to atoms done       ...    0.0 sec
Grid point division into batches done        ...    0.4 sec
Reduced shell lists constructed in    0.7 sec

Total number of grid points                  ...    95094
Total number of batches                      ...     1495
Average number of points per batch           ...       63
Average number of grid points per atom       ...     5005
Average number of shells per batch           ...   166.88 (76.90%)
Average number of basis functions per batch  ...   493.62 (80.79%)
Average number of large shells per batch     ...   138.78 (83.16%)
Average number of large basis fcns per batch ...   406.22 (82.29%)
Average number of aux-shells per batch       ...   166.88 (43.34%)
Average number of aux functions per batch    ...   493.62 (38.90%)
Maximum spatial batch extension              ...   1.75,  2.08,  1.82 au
Average spatial batch extension              ...   0.05,  0.05,  0.05 au

Time for grid setup =    0.736 sec

------------------------------
INITIAL GUESS: MODEL POTENTIAL
------------------------------
Loading Hartree-Fock densities                     ... done
  calling /sw/apps/orca/orca_4_2_0_linux_x86-64_openmpi314/orca MOR18_ed37_atom42.inp > MOR18_ed37_atom42.out in order to generate an atomic fitting density for atom 0 (Mo with ECP) on-the-fly... 
    atom 0 (Mo), assumed electronic state with S=5: 1s2 2s2 2p6 3s2 3p6 4s2 3d10 4p6 5s2 4d4           ... done
Calculating cut-offs                               ... done
Setting up the integral package                    ... done
Initializing the effective Hamiltonian             ... done
Starting the Coulomb interaction                   ... done (   0.0 sec)
Reading the grid                                   ... done
Mapping shells                                     ... done
Starting the XC term evaluation                    ... done (   0.2 sec)
  promolecular density results
     # of electrons  =    125.997283646
     EX              =   -192.443307998
     EC              =     -0.659188809
     EX+EC           =   -193.102496806
Transforming the Hamiltonian                       ... done (   0.0 sec)
Diagonalizing the Hamiltonian                      ... done (   0.1 sec)
Back transforming the eigenvectors                 ... done (   0.0 sec)
Now organizing SCF variables                       ... done
                      ------------------
                      INITIAL GUESS DONE (   2.9 sec)
                      ------------------
--------------
SCF ITERATIONS
--------------
ITER       Energy         Delta-E        Max-DP      RMS-DP      [F,P]     Damp
  0   -638.2762910106   0.000000000000 0.19329672  0.00164090  0.3972807 0.7000
  1   -638.0482309488   0.228060061824 0.14150921  0.00127137  0.2801655 0.7000
                               ***Turning on DIIS***
  2   -638.1395089792  -0.091278030435 0.08756800  0.00083918  0.1838819 0.7000
  3   -638.3421073077  -0.202598328502 0.06052048  0.00054448  0.1241947 0.7000
  4   -638.5468400255  -0.204732717792 0.17448278  0.00140549  0.0906761 0.0000
  5   -638.6397999181  -0.092959892588 0.03832797  0.00027243  0.0387621 0.0000
  6   -638.6480263528  -0.008226434725 0.01090848  0.00013356  0.0048373 0.0000
  7   -638.6483371381  -0.000310785245 0.00807906  0.00006485  0.0030100 0.0000
  8   -638.6484125797  -0.000075441640 0.00936534  0.00007702  0.0019843 0.0000
  9   -638.6484359207  -0.000023340946 0.00618932  0.00004730  0.0006821 0.0000
 10   -638.6484434755  -0.000007554875 0.00263944  0.00001824  0.0002909 0.0000
 11   -638.6484448375  -0.000001361998 0.00320675  0.00002208  0.0002218 0.0000
                 **** Energy Check signals convergence ****

               *****************************************************
               *                     SUCCESS                       *
               *           SCF CONVERGED AFTER  12 CYCLES          *
               *****************************************************


----------------
TOTAL SCF ENERGY
----------------

Total Energy       :         -638.64844535 Eh          -17378.50770 eV

Components:
Nuclear Repulsion  :          825.02548483 Eh           22450.08478 eV
Electronic Energy  :        -1463.67393018 Eh          -39828.59249 eV
One Electron Energy:        -2531.92198596 Eh          -68897.09990 eV
Two Electron Energy:         1068.24805579 Eh           29068.50741 eV

Virial components:
Potential Energy   :        -1230.86090243 Eh          -33493.42793 eV
Kinetic Energy     :          592.21245708 Eh           16114.92022 eV
Virial Ratio       :            2.07841103


DFT components:
N(Alpha)           :       48.999909079176 electrons
N(Beta)            :       48.999909079176 electrons
N(Total)           :       97.999818158353 electrons
E(X)               :      -23.484961586053 Eh       
E(C)               :       -1.828661719937 Eh       
E(XC)              :      -25.313623305990 Eh       
DFET-embed. en.    :        0.000000000000 Eh       

---------------
SCF CONVERGENCE
---------------

  Last Energy change         ...   -5.0915e-07  Tolerance :   1.0000e-06
  Last MAX-Density change    ...    3.2274e-03  Tolerance :   1.0000e-05
  Last RMS-Density change    ...    2.3695e-05  Tolerance :   1.0000e-06
  Last DIIS Error            ...    6.4791e-05  Tolerance :   1.0000e-06

             **** THE GBW FILE WAS UPDATED (MOR18_ed37.gbw) ****
             **** DENSITY FILE WAS UPDATED (MOR18_ed37.scfp) ****
             **** ENERGY FILE WAS UPDATED (MOR18_ed37.en.tmp) ****
             **** THE GBW FILE WAS UPDATED (MOR18_ed37.gbw) ****
             **** DENSITY FILE WAS UPDATED (MOR18_ed37.scfp) ****
----------------
ORBITAL ENERGIES
----------------

  NO   OCC          E(Eh)            E(eV) 
   0   2.0000     -20.101151      -546.9801 
   1   2.0000     -20.101147      -546.9800 
   2   2.0000     -20.101143      -546.9799 
   3   2.0000     -10.965796      -298.3945 
   4   2.0000     -10.965789      -298.3943 
   5   2.0000     -10.965783      -298.3941 
   6   2.0000     -10.916755      -297.0600 
   7   2.0000     -10.916381      -297.0498 
   8   2.0000     -10.916378      -297.0497 
   9   2.0000     -10.915378      -297.0225 
  10   2.0000     -10.915377      -297.0225 
  11   2.0000     -10.914972      -297.0115 
  12   2.0000      -2.849391       -77.5359 
  13   2.0000      -1.766035       -48.0563 
  14   2.0000      -1.751840       -47.6700 
  15   2.0000      -1.751827       -47.6696 
  16   2.0000      -1.332504       -36.2593 
  17   2.0000      -1.331788       -36.2398 
  18   2.0000      -1.331785       -36.2397 
  19   2.0000      -1.099398       -29.9161 
  20   2.0000      -0.976148       -26.5623 
  21   2.0000      -0.976147       -26.5623 
  22   2.0000      -0.797772       -21.7085 
  23   2.0000      -0.797770       -21.7084 
  24   2.0000      -0.704757       -19.1774 
  25   2.0000      -0.696782       -18.9604 
  26   2.0000      -0.687658       -18.7121 
  27   2.0000      -0.687651       -18.7119 
  28   2.0000      -0.629844       -17.1389 
  29   2.0000      -0.604187       -16.4408 
  30   2.0000      -0.590532       -16.0692 
  31   2.0000      -0.590531       -16.0692 
  32   2.0000      -0.578889       -15.7524 
  33   2.0000      -0.551728       -15.0133 
  34   2.0000      -0.549737       -14.9591 
  35   2.0000      -0.549726       -14.9588 
  36   2.0000      -0.540453       -14.7065 
  37   2.0000      -0.540448       -14.7063 
  38   2.0000      -0.532644       -14.4940 
  39   2.0000      -0.522136       -14.2081 
  40   2.0000      -0.522120       -14.2076 
  41   2.0000      -0.493729       -13.4351 
  42   2.0000      -0.493724       -13.4349 
  43   2.0000      -0.492579       -13.4037 
  44   2.0000      -0.399124       -10.8607 
  45   2.0000      -0.399114       -10.8605 
  46   2.0000      -0.274493        -7.4693 
  47   2.0000      -0.263605        -7.1730 
  48   2.0000      -0.263585        -7.1725 
  49   0.0000       0.018902         0.5144 
  50   0.0000       0.018912         0.5146 
  51   0.0000       0.031830         0.8661 
  52   0.0000       0.042425         1.1544 
  53   0.0000       0.042435         1.1547 
  54   0.0000       0.055519         1.5108 
  55   0.0000       0.069568         1.8930 
  56   0.0000       0.069568         1.8931 
  57   0.0000       0.080359         2.1867 
  58   0.0000       0.080370         2.1870 
  59   0.0000       0.083199         2.2640 
  60   0.0000       0.085818         2.3352 
  61   0.0000       0.085828         2.3355 
  62   0.0000       0.102314         2.7841 
  63   0.0000       0.105431         2.8689 
  64   0.0000       0.105444         2.8693 
  65   0.0000       0.107437         2.9235 
  66   0.0000       0.112768         3.0686 
  67   0.0000       0.114861         3.1255 
  68   0.0000       0.120796         3.2870 
  69   0.0000       0.120802         3.2872 
  70   0.0000       0.143800         3.9130 
  71   0.0000       0.143819         3.9135 
  72   0.0000       0.143896         3.9156 
  73   0.0000       0.150592         4.0978 
  74   0.0000       0.152144         4.1400 
  75   0.0000       0.153801         4.1851 
  76   0.0000       0.153806         4.1853 
  77   0.0000       0.172423         4.6919 
  78   0.0000       0.172432         4.6921 
  79   0.0000       0.191068         5.1992 
  80   0.0000       0.191082         5.1996 
  81   0.0000       0.194905         5.3036 
  82   0.0000       0.194950         5.3049 
  83   0.0000       0.196962         5.3596 
  84   0.0000       0.203563         5.5392 
  85   0.0000       0.215510         5.8643 
  86   0.0000       0.215559         5.8656 
  87   0.0000       0.220618         6.0033 
  88   0.0000       0.231674         6.3042 
  89   0.0000       0.231737         6.3059 
  90   0.0000       0.235773         6.4157 
  91   0.0000       0.244759         6.6602 
  92   0.0000       0.247207         6.7268 
  93   0.0000       0.253295         6.8925 
  94   0.0000       0.253352         6.8941 
  95   0.0000       0.276167         7.5149 
  96   0.0000       0.276192         7.5156 
  97   0.0000       0.278616         7.5815 
  98   0.0000       0.278644         7.5823 
  99   0.0000       0.285553         7.7703 
 100   0.0000       0.285658         7.7732 
 101   0.0000       0.296872         8.0783 
 102   0.0000       0.301087         8.1930 
 103   0.0000       0.301107         8.1935 
 104   0.0000       0.310718         8.4551 
 105   0.0000       0.314562         8.5597 
 106   0.0000       0.315807         8.5935 
 107   0.0000       0.315876         8.5954 
 108   0.0000       0.326782         8.8922 
 109   0.0000       0.332384         9.0446 
 110   0.0000       0.337688         9.1890 
 111   0.0000       0.346645         9.4327 
 112   0.0000       0.346704         9.4343 
 113   0.0000       0.351819         9.5735 
 114   0.0000       0.351840         9.5741 
 115   0.0000       0.364924         9.9301 
 116   0.0000       0.364955         9.9309 
 117   0.0000       0.368085        10.0161 
 118   0.0000       0.374731        10.1969 
 119   0.0000       0.383112        10.4250 
 120   0.0000       0.383206        10.4276 
 121   0.0000       0.391932        10.6650 
 122   0.0000       0.398700        10.8492 
 123   0.0000       0.398715        10.8496 
 124   0.0000       0.408967        11.1286 
 125   0.0000       0.413231        11.2446 
 126   0.0000       0.413249        11.2451 
 127   0.0000       0.418474        11.3872 
 128   0.0000       0.421846        11.4790 
 129   0.0000       0.421861        11.4794 
 130   0.0000       0.431412        11.7393 
 131   0.0000       0.431425        11.7397 
 132   0.0000       0.434179        11.8146 
 133   0.0000       0.434392        11.8204 
 134   0.0000       0.447644        12.1810 
 135   0.0000       0.450417        12.2565 
 136   0.0000       0.450460        12.2576 
 137   0.0000       0.454163        12.3584 
 138   0.0000       0.467431        12.7194 
 139   0.0000       0.476761        12.9733 
 140   0.0000       0.484908        13.1950 
 141   0.0000       0.484998        13.1975 
 142   0.0000       0.492203        13.3935 
 143   0.0000       0.507088        13.7986 
 144   0.0000       0.507242        13.8028 
 145   0.0000       0.515872        14.0376 
 146   0.0000       0.530569        14.4375 
 147   0.0000       0.530993        14.4491 
 148   0.0000       0.541234        14.7277 
 149   0.0000       0.541367        14.7313 
 150   0.0000       0.557392        15.1674 
 151   0.0000       0.572441        15.5769 
 152   0.0000       0.572730        15.5848 
 153   0.0000       0.572853        15.5881 
 154   0.0000       0.578525        15.7425 
 155   0.0000       0.578633        15.7454 
 156   0.0000       0.590107        16.0576 
 157   0.0000       0.590203        16.0602 
 158   0.0000       0.593596        16.1526 
 159   0.0000       0.593845        16.1593 
 160   0.0000       0.597151        16.2493 
 161   0.0000       0.600628        16.3439 
 162   0.0000       0.600666        16.3450 
 163   0.0000       0.604655        16.4535 
 164   0.0000       0.613629        16.6977 
 165   0.0000       0.616988        16.7891 
 166   0.0000       0.639103        17.3909 
 167   0.0000       0.642470        17.4825 
 168   0.0000       0.643624        17.5139 
 169   0.0000       0.643709        17.5162 
 170   0.0000       0.654952        17.8221 
 171   0.0000       0.655085        17.8258 
 172   0.0000       0.662817        18.0362 
 173   0.0000       0.666218        18.1287 
 174   0.0000       0.679655        18.4944 
 175   0.0000       0.679797        18.4982 
 176   0.0000       0.690612        18.7925 
 177   0.0000       0.693917        18.8824 
 178   0.0000       0.704284        19.1645 
 179   0.0000       0.704400        19.1677 
 180   0.0000       0.707081        19.2406 
 181   0.0000       0.707454        19.2508 
 182   0.0000       0.718250        19.5446 
 183   0.0000       0.718367        19.5477 
 184   0.0000       0.727776        19.8038 
 185   0.0000       0.732984        19.9455 
 186   0.0000       0.733000        19.9460 
 187   0.0000       0.733956        19.9720 
 188   0.0000       0.750169        20.4131 
 189   0.0000       0.754581        20.5332 
 190   0.0000       0.754657        20.5352 
 191   0.0000       0.754764        20.5382 
 192   0.0000       0.767071        20.8731 
 193   0.0000       0.767149        20.8752 
 194   0.0000       0.770874        20.9765 
 195   0.0000       0.774555        21.0767 
 196   0.0000       0.774591        21.0777 
 197   0.0000       0.791140        21.5280 
 198   0.0000       0.800948        21.7949 
 199   0.0000       0.801005        21.7965 
 200   0.0000       0.811824        22.0909 
 201   0.0000       0.818053        22.2603 
 202   0.0000       0.818285        22.2667 
 203   0.0000       0.825333        22.4584 
 204   0.0000       0.825775        22.4705 
 205   0.0000       0.827930        22.5291 
 206   0.0000       0.847292        23.0560 
 207   0.0000       0.847666        23.0662 
 208   0.0000       0.847822        23.0704 
 209   0.0000       0.857037        23.3212 
 210   0.0000       0.857551        23.3351 
 211   0.0000       0.881653        23.9910 
 212   0.0000       0.881714        23.9927 
 213   0.0000       0.896772        24.4024 
 214   0.0000       0.898941        24.4614 
 215   0.0000       0.900101        24.4930 
 216   0.0000       0.900360        24.5000 
 217   0.0000       0.936355        25.4795 
 218   0.0000       0.941528        25.6203 
 219   0.0000       0.941565        25.6213 
 220   0.0000       0.944346        25.6970 
 221   0.0000       0.961661        26.1681 
 222   0.0000       0.961681        26.1687 
 223   0.0000       0.964571        26.2473 
 224   0.0000       0.970129        26.3985 
 225   0.0000       0.994522        27.0623 
 226   0.0000       0.994883        27.0721 
 227   0.0000       1.002198        27.2712 
 228   0.0000       1.016731        27.6667 
 229   0.0000       1.016785        27.6681 
 230   0.0000       1.027853        27.9693 
 231   0.0000       1.027996        27.9732 
 232   0.0000       1.028935        27.9987 
 233   0.0000       1.073238        29.2043 
 234   0.0000       1.073286        29.2056 
 235   0.0000       1.074233        29.2314 
 236   0.0000       1.076065        29.2812 
 237   0.0000       1.076403        29.2904 
 238   0.0000       1.089547        29.6481 
 239   0.0000       1.093469        29.7548 
 240   0.0000       1.115329        30.3497 
 241   0.0000       1.122358        30.5409 
 242   0.0000       1.122482        30.5443 
 243   0.0000       1.129431        30.7334 
 244   0.0000       1.129527        30.7360 
 245   0.0000       1.150856        31.3164 
 246   0.0000       1.168778        31.8041 
 247   0.0000       1.168912        31.8077 
 248   0.0000       1.196510        32.5587 
 249   0.0000       1.218644        33.1610 
 250   0.0000       1.221608        33.2416 
 251   0.0000       1.221718        33.2446 
 252   0.0000       1.251169        34.0460 
 253   0.0000       1.263980        34.3946 
 254   0.0000       1.287695        35.0400 
 255   0.0000       1.287893        35.0453 
 256   0.0000       1.309198        35.6251 
 257   0.0000       1.309260        35.6268 
 258   0.0000       1.318566        35.8800 
 259   0.0000       1.318752        35.8851 
 260   0.0000       1.324538        36.0425 
 261   0.0000       1.337083        36.3839 
 262   0.0000       1.367629        37.2151 
 263   0.0000       1.367799        37.2197 
 264   0.0000       1.375973        37.4421 
 265   0.0000       1.399452        38.0810 
 266   0.0000       1.399548        38.0836 
 267   0.0000       1.407913        38.3113 
 268   0.0000       1.420094        38.6427 
 269   0.0000       1.420285        38.6479 
 270   0.0000       1.443210        39.2717 
 271   0.0000       1.443416        39.2774 
 272   0.0000       1.468437        39.9582 
 273   0.0000       1.468619        39.9632 
 274   0.0000       1.469535        39.9881 
 275   0.0000       1.482540        40.3420 
 276   0.0000       1.482790        40.3488 
 277   0.0000       1.485112        40.4119 
 278   0.0000       1.516680        41.2710 
 279   0.0000       1.516708        41.2717 
 280   0.0000       1.535506        41.7833 
 281   0.0000       1.535588        41.7855 
 282   0.0000       1.539964        41.9046 
 283   0.0000       1.569725        42.7144 
 284   0.0000       1.575026        42.8586 
 285   0.0000       1.575268        42.8652 
 286   0.0000       1.599117        43.5142 
 287   0.0000       1.606196        43.7068 
 288   0.0000       1.616265        43.9808 
 289   0.0000       1.616322        43.9823 
 290   0.0000       1.640793        44.6482 
 291   0.0000       1.640886        44.6508 
 292   0.0000       1.676209        45.6120 
 293   0.0000       1.676406        45.6173 
 294   0.0000       1.704442        46.3802 
 295   0.0000       1.739900        47.3451 
 296   0.0000       1.739910        47.3454 
 297   0.0000       1.741160        47.3794 
 298   0.0000       1.752771        47.6953 
 299   0.0000       1.818200        49.4757 
 300   0.0000       1.836739        49.9802 
 301   0.0000       1.836810        49.9821 
 302   0.0000       1.881951        51.2105 
 303   0.0000       1.882081        51.2140 
 304   0.0000       1.905208        51.8434 
 305   0.0000       1.905590        51.8538 
 306   0.0000       1.905680        51.8562 
 307   0.0000       1.927694        52.4552 
 308   0.0000       1.951156        53.0937 
 309   0.0000       1.951162        53.0938 
 310   0.0000       1.956727        53.2453 
 311   0.0000       1.961127        53.3650 
 312   0.0000       1.961472        53.3744 
 313   0.0000       1.987289        54.0769 
 314   0.0000       1.987478        54.0820 
 315   0.0000       1.991495        54.1913 
 316   0.0000       1.991508        54.1917 
 317   0.0000       2.017339        54.8946 
 318   0.0000       2.017355        54.8950 
 319   0.0000       2.018112        54.9156 
 320   0.0000       2.031781        55.2876 
 321   0.0000       2.031846        55.2893 
 322   0.0000       2.045084        55.6496 
 323   0.0000       2.047750        55.7221 
 324   0.0000       2.072622        56.3989 
 325   0.0000       2.074070        56.4383 
 326   0.0000       2.097058        57.0638 
 327   0.0000       2.097128        57.0658 
 328   0.0000       2.097642        57.0797 
 329   0.0000       2.124458        57.8094 
 330   0.0000       2.138942        58.2036 
 331   0.0000       2.170589        59.0647 
 332   0.0000       2.170642        59.0662 
 333   0.0000       2.189353        59.5753 
 334   0.0000       2.189381        59.5761 
 335   0.0000       2.234558        60.8054 
 336   0.0000       2.234657        60.8081 
 337   0.0000       2.280240        62.0485 
 338   0.0000       2.280272        62.0494 
 339   0.0000       2.297132        62.5081 
 340   0.0000       2.299959        62.5851 
 341   0.0000       2.320647        63.1480 
 342   0.0000       2.320803        63.1523 
 343   0.0000       2.366805        64.4040 
 344   0.0000       2.366882        64.4061 
 345   0.0000       2.380336        64.7722 
 346   0.0000       2.418949        65.8229 
 347   0.0000       2.419188        65.8294 
 348   0.0000       2.431922        66.1760 
 349   0.0000       2.460270        66.9473 
 350   0.0000       2.460338        66.9492 
 351   0.0000       2.484036        67.5940 
 352   0.0000       2.500641        68.0459 
 353   0.0000       2.524706        68.7007 
 354   0.0000       2.524735        68.7015 
 355   0.0000       2.530195        68.8501 
 356   0.0000       2.552714        69.4629 
 357   0.0000       2.569166        69.9106 
 358   0.0000       2.569231        69.9123 
 359   0.0000       2.595590        70.6296 
 360   0.0000       2.630669        71.5841 
 361   0.0000       2.630710        71.5853 
 362   0.0000       2.668393        72.6107 
 363   0.0000       2.679600        72.9156 
 364   0.0000       2.679651        72.9170 
 365   0.0000       2.693657        73.2981 
 366   0.0000       2.693684        73.2989 
 367   0.0000       2.727963        74.2317 
 368   0.0000       2.792091        75.9766 
 369   0.0000       2.823113        76.8208 
 370   0.0000       2.826364        76.9093 
 371   0.0000       2.826553        76.9144 
 372   0.0000       2.858311        77.7786 
 373   0.0000       2.858357        77.7799 
 374   0.0000       2.867686        78.0337 
 375   0.0000       2.867788        78.0365 
 376   0.0000       2.875196        78.2381 
 377   0.0000       2.893317        78.7312 
 378   0.0000       2.896709        78.8235 
 379   0.0000       2.896743        78.8244 
 380   0.0000       2.930953        79.7553 
 381   0.0000       2.970634        80.8351 
 382   0.0000       2.970651        80.8355 
 383   0.0000       2.990049        81.3634 
 384   0.0000       3.003043        81.7169 
 385   0.0000       3.003065        81.7175 
 386   0.0000       3.018575        82.1396 
 387   0.0000       3.018598        82.1402 
 388   0.0000       3.027797        82.3905 
 389   0.0000       3.034881        82.5833 
 390   0.0000       3.034921        82.5844 
 391   0.0000       3.041765        82.7706 
 392   0.0000       3.095723        84.2389 
 393   0.0000       3.095795        84.2409 
 394   0.0000       3.114832        84.7589 
 395   0.0000       3.122679        84.9724 
 396   0.0000       3.122730        84.9738 
 397   0.0000       3.141680        85.4895 
 398   0.0000       3.180914        86.5571 
 399   0.0000       3.180972        86.5586 
 400   0.0000       3.192110        86.8617 
 401   0.0000       3.210449        87.3608 
 402   0.0000       3.228860        87.8618 
 403   0.0000       3.228888        87.8625 
 404   0.0000       3.243364        88.2564 
 405   0.0000       3.270461        88.9938 
 406   0.0000       3.272602        89.0520 
 407   0.0000       3.272666        89.0538 
 408   0.0000       3.282362        89.3176 
 409   0.0000       3.282389        89.3184 
 410   0.0000       3.322936        90.4217 
 411   0.0000       3.322978        90.4228 
 412   0.0000       3.326347        90.5145 
 413   0.0000       3.326408        90.5162 
 414   0.0000       3.350507        91.1719 
 415   0.0000       3.372063        91.7585 
 416   0.0000       3.372074        91.7588 
 417   0.0000       3.384114        92.0864 
 418   0.0000       3.393255        92.3351 
 419   0.0000       3.421704        93.1093 
 420   0.0000       3.428006        93.2808 
 421   0.0000       3.428035        93.2816 
 422   0.0000       3.433348        93.4262 
 423   0.0000       3.433501        93.4303 
 424   0.0000       3.461148        94.1826 
 425   0.0000       3.461195        94.1839 
 426   0.0000       3.469266        94.4035 
 427   0.0000       3.476066        94.5886 
 428   0.0000       3.476086        94.5891 
 429   0.0000       3.487898        94.9105 
 430   0.0000       3.487946        94.9118 
 431   0.0000       3.492532        95.0366 
 432   0.0000       3.505177        95.3807 
 433   0.0000       3.526030        95.9482 
 434   0.0000       3.533974        96.1643 
 435   0.0000       3.534009        96.1653 
 436   0.0000       3.547312        96.5273 
 437   0.0000       3.569968        97.1438 
 438   0.0000       3.570026        97.1453 
 439   0.0000       3.575248        97.2874 
 440   0.0000       3.575306        97.2890 
 441   0.0000       3.590836        97.7116 
 442   0.0000       3.593727        97.7903 
 443   0.0000       3.606742        98.1444 
 444   0.0000       3.610313        98.2416 
 445   0.0000       3.610412        98.2443 
 446   0.0000       3.644030        99.1591 
 447   0.0000       3.644072        99.1602 
 448   0.0000       3.657998        99.5392 
 449   0.0000       3.676594       100.0452 
 450   0.0000       3.676650       100.0467 
 451   0.0000       3.684495       100.2602 
 452   0.0000       3.697767       100.6214 
 453   0.0000       3.726156       101.3939 
 454   0.0000       3.726286       101.3974 
 455   0.0000       3.726710       101.4089 
 456   0.0000       3.731165       101.5302 
 457   0.0000       3.731232       101.5320 
 458   0.0000       3.750322       102.0514 
 459   0.0000       3.750370       102.0528 
 460   0.0000       3.761344       102.3514 
 461   0.0000       3.811852       103.7258 
 462   0.0000       3.811995       103.7297 
 463   0.0000       3.839055       104.4660 
 464   0.0000       3.860523       105.0502 
 465   0.0000       3.860849       105.0590 
 466   0.0000       3.883321       105.6705 
 467   0.0000       3.889783       105.8464 
 468   0.0000       3.889838       105.8479 
 469   0.0000       3.905387       106.2710 
 470   0.0000       3.936015       107.1044 
 471   0.0000       3.961584       107.8002 
 472   0.0000       3.961610       107.8009 
 473   0.0000       3.973517       108.1249 
 474   0.0000       3.973570       108.1263 
 475   0.0000       3.986304       108.4729 
 476   0.0000       4.037551       109.8673 
 477   0.0000       4.048633       110.1689 
 478   0.0000       4.048650       110.1694 
 479   0.0000       4.094495       111.4169 
 480   0.0000       4.094622       111.4203 
 481   0.0000       4.106249       111.7367 
 482   0.0000       4.113965       111.9467 
 483   0.0000       4.114031       111.9485 
 484   0.0000       4.129794       112.3774 
 485   0.0000       4.129845       112.3788 
 486   0.0000       4.199262       114.2677 
 487   0.0000       4.212748       114.6347 
 488   0.0000       4.212805       114.6362 
 489   0.0000       4.231973       115.1579 
 490   0.0000       4.231989       115.1583 
 491   0.0000       4.271697       116.2388 
 492   0.0000       4.317698       117.4905 
 493   0.0000       4.323516       117.6488 
 494   0.0000       4.323566       117.6502 
 495   0.0000       4.370951       118.9396 
 496   0.0000       4.371631       118.9581 
 497   0.0000       4.376581       119.0928 
 498   0.0000       4.376643       119.0945 
 499   0.0000       4.392421       119.5238 
 500   0.0000       4.392484       119.5256 
 501   0.0000       4.418508       120.2337 
 502   0.0000       4.418694       120.2388 
 503   0.0000       4.451447       121.1300 
 504   0.0000       4.451482       121.1310 
 505   0.0000       4.458385       121.3188 
 506   0.0000       4.482830       121.9840 
 507   0.0000       4.482843       121.9843 
 508   0.0000       4.496380       122.3527 
 509   0.0000       4.505599       122.6036 
 510   0.0000       4.505676       122.6057 
 511   0.0000       4.506516       122.6285 
 512   0.0000       4.550488       123.8251 
 513   0.0000       4.582090       124.6850 
 514   0.0000       4.582112       124.6856 
 515   0.0000       4.595777       125.0575 
 516   0.0000       4.595889       125.0605 
 517   0.0000       4.680504       127.3630 
 518   0.0000       4.726215       128.6068 
 519   0.0000       4.726217       128.6069 
 520   0.0000       4.786452       130.2460 
 521   0.0000       4.819234       131.1380 
 522   0.0000       4.819266       131.1389 
 523   0.0000       4.908316       133.5621 
 524   0.0000       4.908326       133.5623 
 525   0.0000       4.935176       134.2930 
 526   0.0000       4.964839       135.1001 
 527   0.0000       4.974953       135.3754 
 528   0.0000       4.990039       135.7859 
 529   0.0000       4.990075       135.7868 
 530   0.0000       5.044274       137.2617 
 531   0.0000       5.078783       138.2007 
 532   0.0000       5.078826       138.2019 
 533   0.0000       5.127110       139.5158 
 534   0.0000       5.127169       139.5174 
 535   0.0000       5.175992       140.8459 
 536   0.0000       5.180764       140.9758 
 537   0.0000       5.191523       141.2685 
 538   0.0000       5.191533       141.2688 
 539   0.0000       5.396421       146.8441 
 540   0.0000       5.396433       146.8444 
 541   0.0000       5.403859       147.0465 
 542   0.0000       5.406069       147.1066 
 543   0.0000       5.406074       147.1068 
 544   0.0000       5.406287       147.1125 
 545   0.0000       5.406642       147.1222 
 546   0.0000       5.406650       147.1224 
 547   0.0000       5.440348       148.0394 
 548   0.0000       5.440370       148.0400 
 549   0.0000       5.498585       149.6241 
 550   0.0000       5.500522       149.6768 
 551   0.0000       5.500895       149.6870 
 552   0.0000       5.576357       151.7404 
 553   0.0000       5.624709       153.0561 
 554   0.0000       5.638627       153.4348 
 555   0.0000       5.638688       153.4365 
 556   0.0000       5.697170       155.0279 
 557   0.0000       5.797269       157.7517 
 558   0.0000       5.797285       157.7522 
 559   0.0000       5.808069       158.0456 
 560   0.0000       5.808142       158.0476 
 561   0.0000       5.812668       158.1707 
 562   0.0000       5.827765       158.5815 
 563   0.0000       5.827770       158.5817 
 564   0.0000       5.833674       158.7423 
 565   0.0000       5.868894       159.7007 
 566   0.0000       6.014364       163.6592 
 567   0.0000       6.014417       163.6606 
 568   0.0000       6.046070       164.5219 
 569   0.0000       6.295834       171.3183 
 570   0.0000       6.295865       171.3192 
 571   0.0000       6.499779       176.8680 
 572   0.0000       6.689459       182.0294 
 573   0.0000       6.689481       182.0300 
 574   0.0000       6.712211       182.6485 
 575   0.0000       6.724933       182.9947 
 576   0.0000       6.744918       183.5385 
 577   0.0000       6.744974       183.5401 
 578   0.0000       6.776027       184.3851 
 579   0.0000       6.786544       184.6713 
 580   0.0000       6.786580       184.6722 
 581   0.0000       6.800961       185.0636 
 582   0.0000       6.800982       185.0641 
 583   0.0000       6.824508       185.7043 
 584   0.0000       6.975240       189.8059 
 585   0.0000       6.986135       190.1024 
 586   0.0000       6.986194       190.1040 
 587   0.0000       7.003620       190.5782 
 588   0.0000       7.208432       196.1514 
 589   0.0000       7.208440       196.1516 
 590   0.0000       7.217035       196.3855 
 591   0.0000       7.224775       196.5961 
 592   0.0000       7.236981       196.9283 
 593   0.0000       7.237039       196.9299 
 594   0.0000       7.535483       205.0509 
 595   0.0000       7.547830       205.3869 
 596   0.0000       7.547851       205.3875 
 597   0.0000      23.899668       650.3430 
 598   0.0000      23.939418       651.4247 
 599   0.0000      23.939438       651.4252 
 600   0.0000      24.018562       653.5783 
 601   0.0000      24.018759       653.5837 
 602   0.0000      24.073301       655.0678 
 603   0.0000      24.179950       657.9699 
 604   0.0000      24.180012       657.9716 
 605   0.0000      24.726705       672.8479 
 606   0.0000      25.605666       696.7656 
 607   0.0000      45.095728      1227.1172 
 608   0.0000      45.305377      1232.8220 
 609   0.0000      45.305460      1232.8242 
 610   0.0000      85.125329      2316.3780 

                    ********************************
                    * MULLIKEN POPULATION ANALYSIS *
                    ********************************

-----------------------
MULLIKEN ATOMIC CHARGES
-----------------------
   0 Mo:   -0.171525
   1 O :   -0.342306
   2 C :    0.303331
   3 C :    0.303537
   4 O :   -0.342315
   5 C :    0.303695
   6 O :   -0.342347
   7 C :    0.101703
   8 C :    0.052553
   9 C :    0.103629
  10 C :    0.052817
  11 C :    0.103188
  12 C :    0.052796
  13 H :   -0.026375
  14 H :   -0.033227
  15 H :   -0.026478
  16 H :   -0.033302
  17 H :   -0.026311
  18 H :   -0.033063
Sum of atomic charges:    0.0000000

--------------------------------
MULLIKEN REDUCED ORBITAL CHARGES
--------------------------------
  0 Mos       :     2.451974  s :     2.451974
      pz      :     2.222500  p :     6.767345
      px      :     2.322242
      py      :     2.222603
      dz2     :     1.228169  d :     4.875793
      dxz     :     0.563420
      dyz     :     1.164354
      dx2y2   :     1.355970
      dxy     :     0.563880
      f0      :     0.006722  f :     0.072094
      f+1     :     0.011466
      f-1     :     0.006715
      f+2     :     0.009720
      f-2     :     0.013926
      f+3     :     0.009833
      f-3     :     0.013711
      g0      :     0.000478  g :     0.004319
      g+1     :     0.000354
      g-1     :     0.000180
      g+2     :     0.000333
      g-2     :     0.000739
      g+3     :     0.000311
      g-3     :     0.000829
      g+4     :     0.000559
      g-4     :     0.000537
  1 O s       :     3.878377  s :     3.878377
      pz      :     1.431278  p :     4.408913
      px      :     1.469778
      py      :     1.507857
      dz2     :     0.014501  d :     0.053136
      dxz     :     0.011956
      dyz     :     0.009909
      dx2y2   :     0.009005
      dxy     :     0.007766
      f0      :     0.000334  f :     0.001881
      f+1     :     0.000354
      f-1     :     0.000220
      f+2     :     0.000404
      f-2     :     0.000318
      f+3     :     0.000141
      f-3     :     0.000110
  2 C s       :     3.438225  s :     3.438225
      pz      :     0.747244  p :     2.072646
      px      :     0.680407
      py      :     0.644995
      dz2     :     0.054313  d :     0.167593
      dxz     :     0.020339
      dyz     :     0.032585
      dx2y2   :     0.035964
      dxy     :     0.024392
      f0      :     0.003137  f :     0.018204
      f+1     :     0.003467
      f-1     :     0.002167
      f+2     :     0.003819
      f-2     :     0.003130
      f+3     :     0.001362
      f-3     :     0.001122
  3 C s       :     3.438155  s :     3.438155
      pz      :     0.608453  p :     2.072528
      px      :     0.679876
      py      :     0.784199
      dz2     :     0.010625  d :     0.167575
      dxz     :     0.025613
      dyz     :     0.054704
      dx2y2   :     0.057521
      dxy     :     0.019112
      f0      :     0.002358  f :     0.018206
      f+1     :     0.001006
      f-1     :     0.001604
      f+2     :     0.000534
      f-2     :     0.003430
      f+3     :     0.003511
      f-3     :     0.005762
  4 O s       :     3.878368  s :     3.878368
      pz      :     1.535321  p :     4.408932
      px      :     1.469988
      py      :     1.403622
      dz2     :     0.004324  d :     0.053134
      dxz     :     0.006207
      dyz     :     0.011968
      dx2y2   :     0.017131
      dxy     :     0.013504
      f0      :     0.000256  f :     0.001880
      f+1     :     0.000096
      f-1     :     0.000150
      f+2     :     0.000051
      f-2     :     0.000373
      f+3     :     0.000342
      f-3     :     0.000613
  5 C s       :     3.437972  s :     3.437972
      pz      :     0.732671  p :     2.072535
      px      :     0.680415
      py      :     0.659448
      dz2     :     0.055673  d :     0.167594
      dxz     :     0.021072
      dyz     :     0.026782
      dx2y2   :     0.040401
      dxy     :     0.023665
      f0      :     0.002631  f :     0.018204
      f+1     :     0.003277
      f-1     :     0.002321
      f+2     :     0.003899
      f-2     :     0.003053
      f+3     :     0.001628
      f-3     :     0.001395
  6 O s       :     3.878421  s :     3.878421
      pz      :     1.442143  p :     4.408910
      px      :     1.469799
      py      :     1.496968
      dz2     :     0.014038  d :     0.053136
      dxz     :     0.011400
      dyz     :     0.009351
      dx2y2   :     0.010028
      dxy     :     0.008319
      f0      :     0.000276  f :     0.001881
      f+1     :     0.000339
      f-1     :     0.000237
      f+2     :     0.000417
      f-2     :     0.000304
      f+3     :     0.000169
      f-3     :     0.000138
  7 C s       :     3.180267  s :     3.180267
      pz      :     0.873121  p :     2.681617
      px      :     0.938933
      py      :     0.869563
      dz2     :     0.001757  d :     0.028169
      dxz     :     0.031089
      dyz     :     0.001393
      dx2y2   :    -0.009660
      dxy     :     0.003590
      f0      :     0.001294  f :     0.008243
      f+1     :     0.001461
      f-1     :     0.002076
      f+2     :     0.001020
      f-2     :     0.000598
      f+3     :     0.000951
      f-3     :     0.000845
  8 C s       :     3.211953  s :     3.211953
      pz      :     0.879599  p :     2.701352
      px      :     0.944462
      py      :     0.877291
      dz2     :    -0.001841  d :     0.025912
      dxz     :     0.029620
      dyz     :     0.002389
      dx2y2   :    -0.008131
      dxy     :     0.003875
      f0      :     0.001261  f :     0.008230
      f+1     :     0.001465
      f-1     :     0.002072
      f+2     :     0.001057
      f-2     :     0.000511
      f+3     :     0.001020
      f-3     :     0.000845
  9 C s       :     3.179477  s :     3.179477
      pz      :     0.899810  p :     2.680597
      px      :     0.939037
      py      :     0.841751
      dz2     :    -0.014163  d :     0.028052
      dxz     :     0.002318
      dyz     :    -0.017530
      dx2y2   :     0.025023
      dxy     :     0.032403
      f0      :     0.001235  f :     0.008245
      f+1     :     0.000355
      f-1     :     0.001857
      f+2     :     0.001198
      f-2     :     0.001244
      f+3     :     0.001411
      f-3     :     0.000945
 10 C s       :     3.212430  s :     3.212430
      pz      :     0.843575  p :     2.700821
      px      :     0.944406
      py      :     0.912840
      dz2     :     0.004484  d :     0.025702
      dxz     :     0.019796
      dyz     :    -0.013216
      dx2y2   :     0.000947
      dxy     :     0.013691
      f0      :     0.001401  f :     0.008230
      f+1     :     0.001243
      f-1     :     0.002039
      f+2     :     0.001002
      f-2     :     0.000719
      f+3     :     0.001034
      f-3     :     0.000792
 11 C s       :     3.180886  s :     3.180886
      pz      :     0.838270  p :     2.679613
      px      :     0.939041
      py      :     0.902302
      dz2     :     0.000344  d :     0.028067
      dxz     :     0.018570
      dyz     :    -0.012162
      dx2y2   :     0.005135
      dxy     :     0.016180
      f0      :     0.001362  f :     0.008245
      f+1     :     0.001262
      f-1     :     0.002043
      f+2     :     0.001048
      f-2     :     0.000623
      f+3     :     0.001125
      f-3     :     0.000782
 12 C s       :     3.211088  s :     3.211088
      pz      :     0.910707  p :     2.701723
      px      :     0.944413
      py      :     0.846604
      dz2     :    -0.015284  d :     0.026162
      dxz     :     0.000749
      dyz     :    -0.016328
      dx2y2   :     0.024354
      dxy     :     0.032670
      f0      :     0.001229  f :     0.008230
      f+1     :     0.000356
      f-1     :     0.001861
      f+2     :     0.001208
      f-2     :     0.001223
      f+3     :     0.001417
      f-3     :     0.000936
 13 H s       :     0.986493  s :     0.986493
      pz      :     0.003360  p :     0.037704
      px      :     0.023690
      py      :     0.010654
      dz2     :     0.000458  d :     0.002177
      dxz     :     0.000189
      dyz     :     0.000563
      dx2y2   :     0.000419
      dxy     :     0.000548
 14 H s       :     0.990453  s :     0.990453
      pz      :     0.004462  p :     0.040596
      px      :     0.025351
      py      :     0.010783
      dz2     :     0.000514  d :     0.002178
      dxz     :     0.000230
      dyz     :     0.000516
      dx2y2   :     0.000406
      dxy     :     0.000511
 15 H s       :     0.986731  s :     0.986731
      pz      :     0.013457  p :     0.037570
      px      :     0.023711
      py      :     0.000403
      dz2     :     0.000585  d :     0.002177
      dxz     :     0.000720
      dyz     :     0.000846
      dx2y2   :     0.000009
      dxy     :     0.000017
 16 H s       :     0.990530  s :     0.990530
      pz      :     0.003840  p :     0.040594
      px      :     0.025365
      py      :     0.011389
      dz2     :     0.000459  d :     0.002178
      dxz     :     0.000160
      dyz     :     0.000562
      dx2y2   :     0.000416
      dxy     :     0.000582
 17 H s       :     0.986573  s :     0.986573
      pz      :     0.004067  p :     0.037562
      px      :     0.023687
      py      :     0.009807
      dz2     :     0.000518  d :     0.002176
      dxz     :     0.000196
      dyz     :     0.000518
      dx2y2   :     0.000403
      dxy     :     0.000540
 18 H s       :     0.990334  s :     0.990334
      pz      :     0.014481  p :     0.040551
      px      :     0.025365
      py      :     0.000706
      dz2     :     0.000585  d :     0.002178
      dxz     :     0.000722
      dyz     :     0.000843
      dx2y2   :     0.000009
      dxy     :     0.000019


                     *******************************
                     * LOEWDIN POPULATION ANALYSIS *
                     *******************************

----------------------
LOEWDIN ATOMIC CHARGES
----------------------
   0 Mo:    0.638588
   1 O :    0.038333
   2 C :   -0.186398
   3 C :   -0.186441
   4 O :    0.038340
   5 C :   -0.186409
   6 O :    0.038324
   7 C :   -0.046053
   8 C :   -0.044934
   9 C :   -0.046094
  10 C :   -0.044966
  11 C :   -0.046085
  12 C :   -0.044943
  13 H :    0.013324
  14 H :    0.012906
  15 H :    0.013333
  16 H :    0.012920
  17 H :    0.013341
  18 H :    0.012914

-------------------------------
LOEWDIN REDUCED ORBITAL CHARGES
-------------------------------
  0 Mos       :     1.811307  s :     1.811307
      pz      :     2.119214  p :     6.364729
      px      :     2.126297
      py      :     2.119218
      dz2     :     1.141659  d :     4.916663
      dxz     :     0.728483
      dyz     :     1.107176
      dx2y2   :     1.210650
      dxy     :     0.728696
      f0      :     0.021214  f :     0.247481
      f+1     :     0.041172
      f-1     :     0.023659
      f+2     :     0.031330
      f-2     :     0.049658
      f+3     :     0.035541
      f-3     :     0.044906
      g0      :     0.002674  g :     0.021232
      g+1     :     0.001351
      g-1     :     0.000629
      g+2     :     0.001460
      g-2     :     0.005024
      g+3     :     0.001208
      g-3     :     0.003808
      g+4     :     0.002766
      g-4     :     0.002310
  1 O s       :     3.403688  s :     3.403688
      pz      :     1.493319  p :     4.357749
      px      :     1.448659
      py      :     1.415771
      dz2     :     0.040358  d :     0.194628
      dxz     :     0.065184
      dyz     :     0.039666
      dx2y2   :     0.021002
      dxy     :     0.028417
      f0      :     0.000630  f :     0.005603
      f+1     :     0.001395
      f-1     :     0.000714
      f+2     :     0.000874
      f-2     :     0.001397
      f+3     :     0.000257
      f-3     :     0.000336
  2 C s       :     2.937526  s :     2.937526
      pz      :     0.849081  p :     2.263978
      px      :     0.748662
      py      :     0.666235
      dz2     :     0.247983  d :     0.897306
      dxz     :     0.197194
      dyz     :     0.180880
      dx2y2   :     0.146353
      dxy     :     0.124896
      f0      :     0.014462  f :     0.087588
      f+1     :     0.017445
      f-1     :     0.010403
      f+2     :     0.017757
      f-2     :     0.016143
      f+3     :     0.006110
      f-3     :     0.005268
  3 C s       :     2.937471  s :     2.937471
      pz      :     0.600870  p :     2.263971
      px      :     0.748048
      py      :     0.915052
      dz2     :     0.085762  d :     0.897405
      dxz     :     0.098911
      dyz     :     0.209678
      dx2y2   :     0.279998
      dxy     :     0.223056
      f0      :     0.010765  f :     0.087594
      f+1     :     0.005058
      f-1     :     0.008320
      f+2     :     0.002410
      f-2     :     0.015941
      f+3     :     0.018647
      f-3     :     0.026453
  4 O s       :     3.403678  s :     3.403678
      pz      :     1.388082  p :     4.357753
      px      :     1.448387
      py      :     1.521284
      dz2     :     0.027025  d :     0.194626
      dxz     :     0.015214
      dyz     :     0.029657
      dx2y2   :     0.044463
      dxy     :     0.078268
      f0      :     0.000470  f :     0.005603
      f+1     :     0.000438
      f-1     :     0.000822
      f+2     :     0.000093
      f-2     :     0.000693
      f+3     :     0.001917
      f-3     :     0.001170
  5 C s       :     2.937538  s :     2.937538
      pz      :     0.823092  p :     2.263987
      px      :     0.748653
      py      :     0.692242
      dz2     :     0.238700  d :     0.897296
      dxz     :     0.186799
      dyz     :     0.173676
      dx2y2   :     0.162845
      dxy     :     0.135276
      f0      :     0.012289  f :     0.087589
      f+1     :     0.016111
      f-1     :     0.011078
      f+2     :     0.017934
      f-2     :     0.016186
      f+3     :     0.007399
      f-3     :     0.006592
  6 O s       :     3.403691  s :     3.403691
      pz      :     1.482283  p :     4.357753
      px      :     1.448660
      py      :     1.426810
      dz2     :     0.036259  d :     0.194629
      dxz     :     0.059958
      dyz     :     0.042208
      dx2y2   :     0.022564
      dxy     :     0.033640
      f0      :     0.000596  f :     0.005603
      f+1     :     0.001139
      f-1     :     0.000734
      f+2     :     0.000810
      f-2     :     0.001573
      f+3     :     0.000337
      f-3     :     0.000414
  7 C s       :     2.636606  s :     2.636606
      pz      :     0.936223  p :     2.581958
      px      :     0.721671
      py      :     0.924064
      dz2     :     0.192011  d :     0.783708
      dxz     :     0.135848
      dyz     :     0.247811
      dx2y2   :     0.113543
      dxy     :     0.094495
      f0      :     0.007751  f :     0.043780
      f+1     :     0.006390
      f-1     :     0.013580
      f+2     :     0.004831
      f-2     :     0.003486
      f+3     :     0.003732
      f-3     :     0.004010
  8 C s       :     2.636595  s :     2.636595
      pz      :     0.935802  p :     2.583320
      px      :     0.723446
      py      :     0.924072
      dz2     :     0.181017  d :     0.781301
      dxz     :     0.129472
      dyz     :     0.258216
      dx2y2   :     0.112997
      dxy     :     0.099599
      f0      :     0.007647  f :     0.043718
      f+1     :     0.006551
      f-1     :     0.013491
      f+2     :     0.004925
      f-2     :     0.002876
      f+3     :     0.004110
      f-3     :     0.004118
  9 C s       :     2.636601  s :     2.636601
      pz      :     0.926606  p :     2.581957
      px      :     0.721683
      py      :     0.933668
      dz2     :     0.207541  d :     0.783754
      dxz     :     0.069106
      dyz     :     0.176327
      dx2y2   :     0.169531
      dxy     :     0.161249
      f0      :     0.005420  f :     0.043783
      f+1     :     0.001059
      f-1     :     0.012611
      f+2     :     0.007049
      f-2     :     0.007795
      f+3     :     0.004757
      f-3     :     0.005092
 10 C s       :     2.636587  s :     2.636587
      pz      :     0.927994  p :     2.583300
      px      :     0.723442
      py      :     0.931864
      dz2     :     0.195930  d :     0.781358
      dxz     :     0.144181
      dyz     :     0.242729
      dx2y2   :     0.113611
      dxy     :     0.084908
      f0      :     0.007743  f :     0.043721
      f+1     :     0.005755
      f-1     :     0.013448
      f+2     :     0.005007
      f-2     :     0.004074
      f+3     :     0.003708
      f-3     :     0.003984
 11 C s       :     2.636598  s :     2.636598
      pz      :     0.927591  p :     2.581934
      px      :     0.721653
      py      :     0.932690
      dz2     :     0.185086  d :     0.783771
      dxz     :     0.140578
      dyz     :     0.254221
      dx2y2   :     0.114100
      dxy     :     0.089786
      f0      :     0.007617  f :     0.043782
      f+1     :     0.006023
      f-1     :     0.013359
      f+2     :     0.005115
      f-2     :     0.003423
      f+3     :     0.004163
      f-3     :     0.004082
 12 C s       :     2.636596  s :     2.636596
      pz      :     0.926007  p :     2.583317
      px      :     0.723439
      py      :     0.933871
      dz2     :     0.206739  d :     0.781311
      dxz     :     0.069964
      dyz     :     0.177063
      dx2y2   :     0.168442
      dxy     :     0.159103
      f0      :     0.005401  f :     0.043719
      f+1     :     0.001092
      f-1     :     0.012619
      f+2     :     0.007069
      f-2     :     0.007694
      f+3     :     0.004750
      f-3     :     0.005093
 13 H s       :     0.698382  s :     0.698382
      pz      :     0.074890  p :     0.259947
      px      :     0.074698
      py      :     0.110359
      dz2     :     0.004923  d :     0.028347
      dxz     :     0.001870
      dyz     :     0.008757
      dx2y2   :     0.006711
      dxy     :     0.006086
 14 H s       :     0.698520  s :     0.698520
      pz      :     0.078309  p :     0.260207
      px      :     0.075082
      py      :     0.106816
      dz2     :     0.005378  d :     0.028366
      dxz     :     0.002319
      dyz     :     0.008766
      dx2y2   :     0.006233
      dxy     :     0.005670
 15 H s       :     0.698375  s :     0.698375
      pz      :     0.124295  p :     0.259945
      px      :     0.074701
      py      :     0.060949
      dz2     :     0.011591  d :     0.028347
      dxz     :     0.007927
      dyz     :     0.008748
      dx2y2   :     0.000053
      dxy     :     0.000029
 16 H s       :     0.698508  s :     0.698508
      pz      :     0.075105  p :     0.260206
      px      :     0.075082
      py      :     0.110019
      dz2     :     0.004889  d :     0.028366
      dxz     :     0.001716
      dyz     :     0.008828
      dx2y2   :     0.006661
      dxy     :     0.006273
 17 H s       :     0.698364  s :     0.698364
      pz      :     0.078687  p :     0.259947
      px      :     0.074698
      py      :     0.106561
      dz2     :     0.005365  d :     0.028348
      dxz     :     0.002138
      dyz     :     0.008837
      dx2y2   :     0.006190
      dxy     :     0.005818
 18 H s       :     0.698520  s :     0.698520
      pz      :     0.124273  p :     0.260201
      px      :     0.075079
      py      :     0.060849
      dz2     :     0.011596  d :     0.028365
      dxz     :     0.007948
      dyz     :     0.008728
      dx2y2   :     0.000053
      dxy     :     0.000040


                      *****************************
                      * MAYER POPULATION ANALYSIS *
                      *****************************

  NA   - Mulliken gross atomic population
  ZA   - Total nuclear charge
  QA   - Mulliken gross atomic charge
  VA   - Mayer's total valence
  BVA  - Mayer's bonded valence
  FA   - Mayer's free valence

  ATOM       NA         ZA         QA         VA         BVA        FA
  0 Mo    14.1715    14.0000    -0.1715     6.2963     6.2963    -0.0000
  1 O      8.3423     8.0000    -0.3423     2.0892     2.0892    -0.0000
  2 C      5.6967     6.0000     0.3033     3.2380     3.2380     0.0000
  3 C      5.6965     6.0000     0.3035     3.2374     3.2374    -0.0000
  4 O      8.3423     8.0000    -0.3423     2.0890     2.0890    -0.0000
  5 C      5.6963     6.0000     0.3037     3.2376     3.2376    -0.0000
  6 O      8.3423     8.0000    -0.3423     2.0892     2.0892    -0.0000
  7 C      5.8983     6.0000     0.1017     3.3324     3.3324    -0.0000
  8 C      5.9474     6.0000     0.0526     3.3758     3.3758     0.0000
  9 C      5.8964     6.0000     0.1036     3.3323     3.3323    -0.0000
 10 C      5.9472     6.0000     0.0528     3.3727     3.3727    -0.0000
 11 C      5.8968     6.0000     0.1032     3.3310     3.3310     0.0000
 12 C      5.9472     6.0000     0.0528     3.3775     3.3775     0.0000
 13 H      1.0264     1.0000    -0.0264     0.9660     0.9660    -0.0000
 14 H      1.0332     1.0000    -0.0332     0.9736     0.9736     0.0000
 15 H      1.0265     1.0000    -0.0265     0.9656     0.9656    -0.0000
 16 H      1.0333     1.0000    -0.0333     0.9738     0.9738    -0.0000
 17 H      1.0263     1.0000    -0.0263     0.9658     0.9658     0.0000
 18 H      1.0331     1.0000    -0.0331     0.9735     0.9735     0.0000

  Mayer bond orders larger than 0.100000
B(  0-Mo,  2-C ) :   1.2185 B(  0-Mo,  3-C ) :   1.2183 B(  0-Mo,  5-C ) :   1.2185 
B(  0-Mo,  7-C ) :   0.3769 B(  0-Mo,  8-C ) :   0.3934 B(  0-Mo,  9-C ) :   0.3766 
B(  0-Mo, 10-C ) :   0.3934 B(  0-Mo, 11-C ) :   0.3767 B(  0-Mo, 12-C ) :   0.3931 
B(  1-O ,  2-C ) :   1.9813 B(  3-C ,  4-O ) :   1.9811 B(  5-C ,  6-O ) :   1.9813 
B(  7-C ,  8-C ) :   1.2631 B(  7-C ,  9-C ) :  -0.1356 B(  7-C , 11-C ) :  -0.1348 
B(  7-C , 12-C ) :   1.0306 B(  7-C , 13-H ) :   1.0541 B(  8-C ,  9-C ) :   1.0299 
B(  8-C , 10-C ) :  -0.1266 B(  8-C , 12-C ) :  -0.1266 B(  8-C , 14-H ) :   1.0578 
B(  9-C , 10-C ) :   1.2639 B(  9-C , 11-C ) :  -0.1356 B(  9-C , 15-H ) :   1.0544 
B( 10-C , 11-C ) :   1.0274 B( 10-C , 12-C ) :  -0.1272 B( 10-C , 16-H ) :   1.0581 
B( 11-C , 12-C ) :   1.2643 B( 11-C , 17-H ) :   1.0543 B( 12-C , 18-H ) :   1.0580 


-------
TIMINGS
-------

Total SCF time: 0 days 0 hours 0 min 33 sec 

Total time                  ....      33.444 sec
Sum of individual times     ....      32.903 sec  ( 98.4%)

Fock matrix formation       ....      27.991 sec  ( 83.7%)
  XC integration            ....       3.627 sec  ( 13.0% of F)
    Basis function eval.    ....       0.567 sec  ( 15.6% of XC)
    Density eval.           ....       0.966 sec  ( 26.6% of XC)
    XC-Functional eval.     ....       0.045 sec  (  1.2% of XC)
    XC-Potential eval.      ....       1.246 sec  ( 34.4% of XC)
Diagonalization             ....       1.205 sec  (  3.6%)
Density matrix formation    ....       0.057 sec  (  0.2%)
Population analysis         ....       0.073 sec  (  0.2%)
Initial guess               ....       2.126 sec  (  6.4%)
Orbital Transformation      ....       0.000 sec  (  0.0%)
Orbital Orthonormalization  ....       0.000 sec  (  0.0%)
DIIS solution               ....       0.715 sec  (  2.1%)
Grid generation             ....       0.736 sec  (  2.2%)


           ************************************************************
           *        Program running with 24 parallel MPI-processes    *
           *              working on a common directory               *
           ************************************************************

------------------------------------------------------------------------------
                                ORCA  MP2 
------------------------------------------------------------------------------

Freezing NCore=24 chemical core electrons

-------------
RI-MP2 ENERGY
-------------
Dimension of the basis                    ...  611
Memory devoted to MP2                     ... 5000 MB   
Data format for buffers                   ... DOUBLE
Compression type for matrix containers    ... UNCOMPRESSED
Scaling for aa/bb pairs                   ...   4.000e-01
Scaling for ab pairs                      ...   4.700e-01
Overall scaling of the MP2 energy         ...   1.000e+00
Calculating two index integrals           ... done (    0.019 sec)
Cholesky decomposition of V**-1           ... done (    0.222 sec)

-----------------
RI-TRANSFORMATION (AUX index driven)
-----------------

Dimension of the orbital-basis         ... 611
Dimension of the aux-basis             ... 1514
Transformation of internal/external MOs...   12-  48 to   49- 610
Number Format for Storage              ... Double (8 Byte)
Integral mode                          ... Direct

First Phase: integral generation and transformation of MO indices
  Aux angular momentum 0               ... done (    0.075 sec)
  Aux angular momentum 1               ... done (    0.128 sec)
  Aux angular momentum 2               ... done (    0.179 sec)
  Aux angular momentum 3               ... done (    0.188 sec)
  Aux angular momentum 4               ... done (    0.078 sec)
  Aux angular momentum 5               ... done (    0.095 sec)
  Aux angular momentum 6               ... done (    0.124 sec)
Closing buffer VIA ( 0.23 GB; CompressionRatio= 1.00)
  Phase 1 completed in     0.965 sec
Second Phase: sorting and transformation of aux index

IA-Transformation
Memory available                       ... 4953 MB 
Max. # MO pairs treated in a batch     ... 2    
# of internal orbitals                 ... 37
# batches for internal orbitals        ... 1
Closing buffer IAV ( 0.01 GB; CompressionRatio= 1.00)
(ia|v) transformation done in     0.169 sec

  Phase 2 completed in     0.392 sec
RI-Integral transformation completed in     1.366 sec
Opening buffers                              ... done

Starting loop over batches of integrals:

Operator 0  - window                       ... ( 12- 48)x( 49-610)
Operator 0  - Memory available             ...  5000 MB
Operator 0  - Memory needed per MO         ...   6.5 MB
Operator 0  - Number of orbitals per batch ... 2
Operator 0  - Number of batches            ... 1

OPERATOR  0   PASS   0:  MOs    12 ...   13 +   14 ...   15 +   16 ...   17 +   18 ...   19
                            +   20 ...   21 +   22 ...   23 +   24 ...   25 +   26 ...   27
                            +   28 ...   29 +   30 ...   31 +   32 ...   33 +   34 ...   35
                            +   36 ...   37 +   38 ...   39 +   40 ...   41 +   42 ...   43
                            +   44 ...   45 +   46 ...   47 +   48 ...   48
  Reading integrals       ... ok
Time spent in pair loops =     0.084 sec
Deleting buffer (Ka|jb)[aa] ...done

-----------------------------------------------
 RI-MP2 CORRELATION ENERGY:     -1.401484702 Eh
-----------------------------------------------


-------
TIMINGS
-------

Total time                :    3.125 sec
Integral trafo            :    1.377 sec ( 44.1%)
I/O of integrals          :    0.011 sec (  0.4%)
K(i,j) Operators          :    0.048 sec (  1.5%)
T(i,j) pair energies      :    0.011 sec (  0.4%)
V-calculation             :    0.019 sec (  0.6%)
V**(-1/2)                 :    0.222 sec (  7.1%)
Gamma(ia|P)               :    0.000 sec (  0.0%)
Gamma-Trafo               :    0.000 sec (  0.0%)
D(virtual)                :    0.000 sec (  0.0%)
D(internal)               :    0.000 sec (  0.0%)
W(virtual)                :    0.000 sec (  0.0%)
W(internal)               :    0.000 sec (  0.0%)
L(virtual)                :    0.000 sec (  0.0%)
L(internal)               :    0.000 sec (  0.0%)
G(D)                      :    0.000 sec (  0.0%)
G(Z)                      :    0.000 sec (  0.0%)
Z-Vector Solution         :    0.000 sec (  0.0%)
Z-Vector Solution         :    0.000 sec (  0.0%)
3-Index Derivative 
+ Separable RIJ part      :    0.000 sec (  0.0%)
2-Index Derivative 
+ Separable RIJ part      :    0.000 sec (  0.0%)
Separable Gradient (X)    :    0.000 sec (  0.0%)


---------------------------------------
MP2 TOTAL ENERGY:     -640.049930048 Eh
---------------------------------------


-------------------------------------------------------------------------------
                          DFT DISPERSION CORRECTION                            
                                                                               
                              DFTD3 V3.1  Rev 1                                
                          USING Becke-Johnson damping                          
-------------------------------------------------------------------------------
The DSD-BLYP/2013 functional is recognized
Active option DFTDOPT                   ...         4   

molecular C6(AA) [au] = 6578.097806 


            DFT-D V3
 parameters
 s6 scaling factor         :     0.5700 
 a1 scaling factor         :     0.0000 
 s8 scaling factor         :     0.0000 
 a2 scaling factor         :     5.4000 
 ad hoc parameters k1-k3   :    16.0000     1.3333    -4.0000 

 Edisp/kcal,au: -20.095255999443  -0.032023825434 
 E6   /kcal   : -20.095255999 
 E8   /kcal   :  -0.000000000 
 % E8         :   0.000000000 

-------------------------   ----------------
Dispersion correction           -0.032023825
-------------------------   ----------------


-------------------------   --------------------
FINAL SINGLE POINT ENERGY      -640.081953873742
-------------------------   --------------------


                            ***************************************
                            *     ORCA property calculations      *
                            ***************************************


  WARNING: The energy has been calculated at the MP2 level but the densities
           used in the property calculations are still SCF densities
           MP2 response densities have not been calculated 
           use %mp2 Density relaxed end
           or  %mp2 Density unrelaxed end

                                    ---------------------
                                    Active property flags
                                    ---------------------
   (+) Dipole Moment


------------------------------------------------------------------------------
                       ORCA ELECTRIC PROPERTIES CALCULATION
------------------------------------------------------------------------------

Dipole Moment Calculation                       ... on
Quadrupole Moment Calculation                   ... off
Polarizability Calculation                      ... off
GBWName                                         ... MOR18_ed37.gbw
Electron density file                           ... MOR18_ed37.scfp
The origin for moment calculation is the CENTER OF MASS  = (-0.084412,  0.000010 -0.000007)

-------------
DIPOLE MOMENT
-------------
                                X             Y             Z
Electronic contribution:    -10.85524      -0.00589      -0.00268
Nuclear contribution   :     13.46160       0.00506       0.00283
                        -----------------------------------------
Total Dipole Moment    :      2.60636      -0.00083       0.00015
                        -----------------------------------------
Magnitude (a.u.)       :      2.60636
Magnitude (Debye)      :      6.62484



--------------------
Rotational spectrum 
--------------------
 
Rotational constants in cm-1:     0.028916     0.021584     0.021580 
Rotational constants in MHz :   866.875127   647.065472   646.965216 

 Dipole components along the rotational axes: 
x,y,z [a.u.] :    -2.606359    -0.000878     0.000131 
x,y,z [Debye]:    -6.624837    -0.002233     0.000332 

 

Timings for individual modules:

Sum of individual times         ...       40.075 sec (=   0.668 min)
GTO integral calculation        ...        2.604 sec (=   0.043 min)   6.5 %
SCF iterations                  ...       33.808 sec (=   0.563 min)  84.4 %
MP2 module                      ...        3.663 sec (=   0.061 min)   9.1 %
                             ****ORCA TERMINATED NORMALLY****
TOTAL RUN TIME: 0 days 0 hours 0 minutes 40 seconds 662 msec
