
                                 *****************
                                 * O   R   C   A *
                                 *****************

           --- An Ab Initio, DFT and Semiempirical electronic structure package ---

                  #######################################################
                  #                        -***-                        #
                  #          Department of theory and spectroscopy      #
                  #               Directorship: Frank Neese             #
                  #        Max Planck Institute fuer Kohlenforschung    #
                  #                Kaiser Wilhelm Platz 1               #
                  #                 D-45470 Muelheim/Ruhr               #
                  #                      Germany                        #
                  #                                                     #
                  #                  All rights reserved                #
                  #                        -***-                        #
                  #######################################################


                         Program Version 4.2.0 -  RELEASE  -


 With contributions from (in alphabetic order):
   Daniel Aravena         : Magnetic Suceptibility
   Michael Atanasov       : Ab Initio Ligand Field Theory (pilot matlab implementation)
   Alexander A. Auer      : GIAO ZORA, VPT2
   Ute Becker             : Parallelization
   Giovanni Bistoni       : ED, misc. LED, open-shell LED, HFLED
   Martin Brehm           : Molecular dynamics
   Dmytro Bykov           : SCF Hessian
   Vijay G. Chilkuri      : MRCI spin determinant printing, contributions to CSF-ICE
   Dipayan Datta          : RHF DLPNO-CCSD density
   Achintya Kumar Dutta   : EOM-CC, STEOM-CC
   Dmitry Ganyushin       : Spin-Orbit,Spin-Spin,Magnetic field MRCI
   Miquel Garcia          : C-PCM Hessian, Gaussian charge scheme
   Yang Guo               : DLPNO-NEVPT2, CIM, IAO-localization
   Andreas Hansen         : Spin unrestricted coupled pair/coupled cluster methods
   Benjamin Helmich-Paris : CASSCF linear response (MC-RPA)
   Lee Huntington         : MR-EOM, pCC
   Robert Izsak           : Overlap fitted RIJCOSX, COSX-SCS-MP3, EOM
   Christian Kollmar      : KDIIS, OOCD, Brueckner-CCSD(T), CCSD density
   Simone Kossmann        : Meta GGA functionals, TD-DFT gradient, OOMP2, MP2 Hessian
   Martin Krupicka        : AUTO-CI
   Lucas Lang             : DCDCAS
   Dagmar Lenk            : GEPOL surface, SMD
   Dimitrios Liakos       : Extrapolation schemes; Compound Job, initial MDCI parallelization
   Dimitrios Manganas     : Further ROCIS development; embedding schemes
   Dimitrios Pantazis     : SARC Basis sets
   Taras Petrenko         : DFT Hessian,TD-DFT gradient, ASA, ECA, R-Raman, ABS, FL, XAS/XES, NRVS
   Peter Pinski           : DLPNO-MP2, DLPNO-MP2 Gradient
   Christoph Reimann      : Effective Core Potentials
   Marius Retegan         : Local ZFS, SOC
   Christoph Riplinger    : Optimizer, TS searches, QM/MM, DLPNO-CCSD(T), (RO)-DLPNO pert. Triples
   Tobias Risthaus        : Range-separated hybrids, TD-DFT gradient, RPA, STAB
   Michael Roemelt        : Original ROCIS implementation
   Masaaki Saitow         : Open-shell DLPNO-CCSD energy and density
   Barbara Sandhoefer     : DKH picture change effects
   Avijit Sen             : IP-ROCIS
   Kantharuban Sivalingam : CASSCF convergence, NEVPT2, FIC-MRCI
   Bernardo de Souza      : ESD, SOC TD-DFT
   Georgi Stoychev        : AutoAux, RI-MP2 NMR
   Willem Van den Heuvel  : Paramagnetic NMR
   Boris Wezisla          : Elementary symmetry handling
   Frank Wennmohs         : Technical directorship


 We gratefully acknowledge several colleagues who have allowed us to
 interface, adapt or use parts of their codes:
   Stefan Grimme, W. Hujo, H. Kruse,             : VdW corrections, initial TS optimization,
                  C. Bannwarth                     DFT functionals, gCP, sTDA/sTD-DF
   Ed Valeev, F. Pavosevic, A. Kumar             : LibInt (2-el integral package), F12 methods
   Garnet Chan, S. Sharma, J. Yang, R. Olivares  : DMRG
   Ulf Ekstrom                                   : XCFun DFT Library
   Mihaly Kallay                                 : mrcc  (arbitrary order and MRCC methods)
   Andreas Klamt, Michael Diedenhofen            : otool_cosmo (COSMO solvation model)
   Jiri Pittner, Ondrej Demel                    : Mk-CCSD
   Frank Weinhold                                : gennbo (NPA and NBO analysis)
   Christopher J. Cramer and Donald G. Truhlar   : smd solvation model
   Lars Goerigk                                  : TD-DFT with DH, B97 family of functionals
   V. Asgeirsson, H. Jonsson                     : NEB implementation
   FAccTs GmbH                                   : IRC, NEB, NEB-TS, Multilevel, MM, QM/MM, CI optimization
   S Lehtola, MJT Oliveira, MAL Marques          : LibXC Library


 Your calculation uses the libint2 library for the computation of 2-el integrals
 For citations please refer to: http://libint.valeyev.net

 Your ORCA version has been built with support for libXC version: 4.2.3
 For citations please refer to: https://tddft.org/programs/libxc/

 This ORCA versions uses:
   CBLAS   interface :  Fast vector & matrix operations
   LAPACKE interface :  Fast linear algebra routines
   SCALAPACK package :  Parallel linear algebra routines


Your calculation utilizes the atom-pairwise dispersion correction
with the Becke-Johnson damping scheme (D3BJ)
Cite in your paper:
S.Grimme, S.Ehrlich, L.Goerigk, J Comput Chem, (2011), 32, 1456–1465 
S.Grimme, J.Antony, S.Ehrlich and H.Krieg, J.Chem.Phys., 132, (2010), 154104 
   

----- Orbital basis set information -----
Your calculation utilizes the basis: def2-TZVPPD
   F. Weigend and R. Ahlrichs, Phys. Chem. Chem. Phys. 7, 3297 (2005).
   D. Rappoport and F. Furche, J. Chem. Phys. 133 134105 (2010).

----- AuxC basis set information -----
Your calculation utilizes the auxiliary basis: def2-TZVPPD/C
   A. Hellweg, C. Hattig, S. Hofener and W. Klopper, Theor. Chem. Acc. 117, 587 (2007).

----- AuxJK basis set information -----
Your calculation utilizes the auxiliary basis: def2/JK
   H-Ba, Hf-Rn: F. Weigend, J. Comput. Chem. 29, 167 (2008).

cite the ECPs for Ru [Def2-ECP] as follows:
Ce-Yb(ecp-28): M. Dolg, H. Stoll, H.Preuss, J. Chem. Phys., 1989, 90, 1730-1734.
Y-Cd(ecp-28), Hf-Hg(ecp-46): D. Andrae,U. Haeussermann, M. Dolg, H. Stoll, H. Preuss, Theor. Chim. Acta, 1990, 77, 123-141.
In-Sb(ecp-28), Tl-Bi(ecp-46): B. Metz, H. Stoll, M. Dolg, J. Chem. Phys., 2000, 113, 2563-2569.
Te-Xe(ecp-28), Po-Rn(ecp-46): K. A. Peterson, D. Figgen, E. Goll, H. Stoll, M. Dolg, J. Chem. Phys., 2003, 119, 11113-11123.
Rb(ecp-28), Cs(ecp-46): T. Leininger, A. Nicklass, W. Kuechle, H. Stoll, M. Dolg, A. Bergner, Chem. Phys. Lett., 1996, 255, 274-280.
Sr(ecp-28), Ba(ecp-46): M. Kaupp, P. V. Schleyer, H. Stoll and H. Preuss, J. Chem. Phys., 1991, 94, 1360-1366.
La(ecp-46): M. Dolg, H. Stoll, A. Savin, H. Preuss, Theor. Chim. Acta, 1989, 75, 173-194.
Lu(ecp-28): X. Cao, M. Dolg, J. Chem. Phys., 2001, 115, 7348-7355.

ECP parameters for Ru [Def2-ECP] have been obtained from:
TURBOMOLE (7.0.2)

================================================================================
                                        WARNINGS
                       Please study these warnings very carefully!
================================================================================


WARNING: No MP2 level density has been requested!
         To caclulate MP2 level properties use
         %mp2 Density relaxed end
         or
         %mp2 Density unrelaxed end
         Otherwise for double-hybrid DFT only the energy is correct!

WARNING: There are different parametrizations of Gershom Martin's DSD-DFs
         for use with and without D3(BJ)!
         You are using the D3(BJ) parametrized version,
         consistent with the 2013 article (S. Kozuch and J. M. L. Martin, JCC 2013, 34, 2327)

WARNING: The frozen-core approximation is turned on by default for 
         the MP2 part of double-hybrid DFT.

INFO   : the flag for use of LIBINT has been found!

================================================================================
                                       INPUT FILE
================================================================================
NAME = MOR16_ed33.in
|  1> #
|  2> # MOR16_ed33 ri-DSD-BLYP/2013-D3BJ/Def2-TZVPPD
|  3> #
|  4> ! rijk ri-dsd-blyp/2013 d3bj def2-tzvppd def2/jk def2-tzvppd/c grid4 nofinalgrid
|  5> 
|  6> *xyz 0 1
|  7> Ru      -0.022566   -0.070875   -0.379144 
|  8> P        0.186586   -1.836138    1.061273 
|  9> P       -0.107348    1.786969    0.983128 
| 10> P       -2.337688   -0.031549   -0.574608 
| 11> P        2.258415    0.217420   -0.654771 
| 12> H       -1.011320    0.631023   -2.964588 
| 13> C       -0.084126    0.244754   -2.536818 
| 14> C        0.002235   -1.177677   -2.238071 
| 15> H       -0.861138   -1.806799   -2.436001 
| 16> C       -1.265405   -2.900768    1.510519 
| 17> C        0.882199   -1.676365    2.777543 
| 18> C        1.273276   -3.202818    0.434593 
| 19> C       -0.218657    3.482246    0.220382 
| 20> C       -1.474202    1.984957    2.229068 
| 21> C        1.261931    2.159069    2.186793 
| 22> C       -3.132442   -1.089929   -1.868209 
| 23> C       -3.503325   -0.454941    0.806619 
| 24> C       -3.065826    1.589188   -1.096490 
| 25> C        3.115513   -0.738567   -1.988082 
| 26> C        3.484163   -0.113039    0.695104 
| 27> C        2.817918    1.905477   -1.167131 
| 28> H        0.775994    0.734504   -2.997508 
| 29> H        0.923698   -1.705224   -2.468332 
| 30> H       -1.797994   -3.196368    0.601740 
| 31> H       -1.951513   -2.343187    2.152343 
| 32> H       -0.940552   -3.802999    2.042563 
| 33> H        0.220858   -1.033459    3.367392 
| 34> H        1.866404   -1.203417    2.738274 
| 35> H        0.973380   -2.648584    3.278375 
| 36> H        0.869924   -3.550933   -0.520488 
| 37> H        1.326184   -4.042772    1.138076 
| 38> H        2.284288   -2.829356    0.252702 
| 39> H       -0.255493    4.275719    0.977504 
| 40> H       -1.111307    3.540133   -0.406666 
| 41> H        0.646533    3.642441   -0.427500 
| 42> H       -1.340744    2.904812    2.810047 
| 43> H       -1.464232    1.128616    2.910406 
| 44> H       -2.450699    2.022913    1.741739 
| 45> H        1.024646    3.051958    2.776564 
| 46> H        2.206281    2.332826    1.666415 
| 47> H        1.391528    1.309503    2.862930 
| 48> H       -4.214574   -0.920776   -1.864995 
| 49> H       -2.933677   -2.144929   -1.660324 
| 50> H       -2.737237   -0.849967   -2.858203 
| 51> H       -4.496496   -0.037297    0.606865 
| 52> H       -3.139236   -0.075571    1.761748 
| 53> H       -3.591401   -1.541056    0.877459 
| 54> H       -4.128475    1.484093   -1.343350 
| 55> H       -2.520683    1.955160   -1.969951 
| 56> H       -2.964031    2.325987   -0.296631 
| 57> H        4.171126   -0.449128   -2.023284 
| 58> H        2.657332   -0.533147   -2.958558 
| 59> H        3.043678   -1.811163   -1.790971 
| 60> H        4.490887    0.184953    0.381316 
| 61> H        3.492626   -1.181661    0.925550 
| 62> H        3.218142    0.429172    1.603169 
| 63> H        3.886252    1.913189   -1.411457 
| 64> H        2.634640    2.627880   -0.369051 
| 65> H        2.240286    2.211368   -2.043241 
| 66> *
| 67> 
| 68> %maxcore 5000
| 69> 
| 70> %pal
| 71> nprocs = 24
| 72> end
| 73> 
| 74> 
| 75>                          ****END OF INPUT****
================================================================================

                       ****************************
                       * Single Point Calculation *
                       ****************************

---------------------------------
CARTESIAN COORDINATES (ANGSTROEM)
---------------------------------
  Ru    -0.022566   -0.070875   -0.379144
  P      0.186586   -1.836138    1.061273
  P     -0.107348    1.786969    0.983128
  P     -2.337688   -0.031549   -0.574608
  P      2.258415    0.217420   -0.654771
  H     -1.011320    0.631023   -2.964588
  C     -0.084126    0.244754   -2.536818
  C      0.002235   -1.177677   -2.238071
  H     -0.861138   -1.806799   -2.436001
  C     -1.265405   -2.900768    1.510519
  C      0.882199   -1.676365    2.777543
  C      1.273276   -3.202818    0.434593
  C     -0.218657    3.482246    0.220382
  C     -1.474202    1.984957    2.229068
  C      1.261931    2.159069    2.186793
  C     -3.132442   -1.089929   -1.868209
  C     -3.503325   -0.454941    0.806619
  C     -3.065826    1.589188   -1.096490
  C      3.115513   -0.738567   -1.988082
  C      3.484163   -0.113039    0.695104
  C      2.817918    1.905477   -1.167131
  H      0.775994    0.734504   -2.997508
  H      0.923698   -1.705224   -2.468332
  H     -1.797994   -3.196368    0.601740
  H     -1.951513   -2.343187    2.152343
  H     -0.940552   -3.802999    2.042563
  H      0.220858   -1.033459    3.367392
  H      1.866404   -1.203417    2.738274
  H      0.973380   -2.648584    3.278375
  H      0.869924   -3.550933   -0.520488
  H      1.326184   -4.042772    1.138076
  H      2.284288   -2.829356    0.252702
  H     -0.255493    4.275719    0.977504
  H     -1.111307    3.540133   -0.406666
  H      0.646533    3.642441   -0.427500
  H     -1.340744    2.904812    2.810047
  H     -1.464232    1.128616    2.910406
  H     -2.450699    2.022913    1.741739
  H      1.024646    3.051958    2.776564
  H      2.206281    2.332826    1.666415
  H      1.391528    1.309503    2.862930
  H     -4.214574   -0.920776   -1.864995
  H     -2.933677   -2.144929   -1.660324
  H     -2.737237   -0.849967   -2.858203
  H     -4.496496   -0.037297    0.606865
  H     -3.139236   -0.075571    1.761748
  H     -3.591401   -1.541056    0.877459
  H     -4.128475    1.484093   -1.343350
  H     -2.520683    1.955160   -1.969951
  H     -2.964031    2.325987   -0.296631
  H      4.171126   -0.449128   -2.023284
  H      2.657332   -0.533147   -2.958558
  H      3.043678   -1.811163   -1.790971
  H      4.490887    0.184953    0.381316
  H      3.492626   -1.181661    0.925550
  H      3.218142    0.429172    1.603169
  H      3.886252    1.913189   -1.411457
  H      2.634640    2.627880   -0.369051
  H      2.240286    2.211368   -2.043241

----------------------------
CARTESIAN COORDINATES (A.U.)
----------------------------
  NO LB      ZA    FRAG     MASS         X           Y           Z
   0 Ru   16.0000*   0   101.070   -0.042644   -0.133934   -0.716478
   1 P    15.0000    0    30.974    0.352596   -3.469798    2.005515
   2 P    15.0000    0    30.974   -0.202858    3.376882    1.857843
   3 P    15.0000    0    30.974   -4.417590   -0.059619   -1.085852
   4 P    15.0000    0    30.974    4.267786    0.410864   -1.237338
   5 H     1.0000    0     1.008   -1.911118    1.192461   -5.602259
   6 C     6.0000    0    12.011   -0.158975    0.462518   -4.793891
   7 C     6.0000    0    12.011    0.004224   -2.225487   -4.229341
   8 H     1.0000    0     1.008   -1.627315   -3.414355   -4.603375
   9 C     6.0000    0    12.011   -2.391269   -5.481657    2.854467
  10 C     6.0000    0    12.011    1.667115   -3.167871    5.248796
  11 C     6.0000    0    12.011    2.406143   -6.052449    0.821262
  12 C     6.0000    0    12.011   -0.413202    6.580491    0.416462
  13 C     6.0000    0    12.011   -2.785838    3.751025    4.212328
  14 C     6.0000    0    12.011    2.384704    4.080049    4.132440
  15 C     6.0000    0    12.011   -5.919458   -2.059667   -3.530403
  16 C     6.0000    0    12.011   -6.620325   -0.859714    1.524289
  17 C     6.0000    0    12.011   -5.793572    3.003130   -2.072066
  18 C     6.0000    0    12.011    5.887466   -1.395689   -3.756931
  19 C     6.0000    0    12.011    6.584114   -0.213613    1.313556
  20 C     6.0000    0    12.011    5.325093    3.600830   -2.205558
  21 H     1.0000    0     1.008    1.466416    1.388011   -5.664469
  22 H     1.0000    0     1.008    1.745536   -3.222406   -4.664471
  23 H     1.0000    0     1.008   -3.397716   -6.040260    1.137124
  24 H     1.0000    0     1.008   -3.687825   -4.427982    4.067339
  25 H     1.0000    0     1.008   -1.777386   -7.186627    3.859885
  26 H     1.0000    0     1.008    0.417361   -1.952954    6.363449
  27 H     1.0000    0     1.008    3.526992   -2.274129    5.174588
  28 H     1.0000    0     1.008    1.839422   -5.005098    6.195231
  29 H     1.0000    0     1.008    1.643918   -6.710291   -0.983580
  30 H     1.0000    0     1.008    2.506125   -7.639732    2.150652
  31 H     1.0000    0     1.008    4.316679   -5.346708    0.477538
  32 H     1.0000    0     1.008   -0.482812    8.079938    1.847215
  33 H     1.0000    0     1.008   -2.100066    6.689882   -0.768487
  34 H     1.0000    0     1.008    1.221770    6.883216   -0.807858
  35 H     1.0000    0     1.008   -2.533639    5.489299    5.310219
  36 H     1.0000    0     1.008   -2.766997    2.132775    5.499870
  37 H     1.0000    0     1.008   -4.631150    3.822752    3.291410
  38 H     1.0000    0     1.008    1.936300    5.767365    5.246946
  39 H     1.0000    0     1.008    4.169267    4.408402    3.149068
  40 H     1.0000    0     1.008    2.629607    2.474602    5.410154
  41 H     1.0000    0     1.008   -7.964391   -1.740014   -3.524330
  42 H     1.0000    0     1.008   -5.543846   -4.053328   -3.137558
  43 H     1.0000    0     1.008   -5.172628   -1.606205   -5.401221
  44 H     1.0000    0     1.008   -8.497146   -0.070481    1.146809
  45 H     1.0000    0     1.008   -5.932296   -0.142808    3.329221
  46 H     1.0000    0     1.008   -6.786764   -2.912174    1.658157
  47 H     1.0000    0     1.008   -7.801687    2.804529   -2.538564
  48 H     1.0000    0     1.008   -4.763401    3.694717   -3.722668
  49 H     1.0000    0     1.008   -5.601207    4.395478   -0.560551
  50 H     1.0000    0     1.008    7.882286   -0.848729   -3.823453
  51 H     1.0000    0     1.008    5.021630   -1.007502   -5.590864
  52 H     1.0000    0     1.008    5.751718   -3.422602   -3.384445
  53 H     1.0000    0     1.008    8.486547    0.349511    0.720583
  54 H     1.0000    0     1.008    6.600107   -2.233016    1.749036
  55 H     1.0000    0     1.008    6.081407    0.811018    3.029550
  56 H     1.0000    0     1.008    7.343952    3.615403   -2.667267
  57 H     1.0000    0     1.008    4.978748    4.965974   -0.697405
  58 H     1.0000    0     1.008    4.233527    4.178880   -3.861166
* core charge reduced due to ECP

--------------------------------
INTERNAL COORDINATES (ANGSTROEM)
--------------------------------
 Ru     0   0   0     0.000000000000     0.00000000     0.00000000
 P      1   0   0     2.287946492417     0.00000000     0.00000000
 P      1   2   0     2.305332366025   104.66221715     0.00000000
 P      1   2   3     2.323691585485    99.03821114   267.64910282
 P      1   2   3     2.315590329163    94.64310639    91.58788700
 H      4   1   2     2.812518111410    66.77219588   215.85148878
 C      6   4   1     1.091732397109    89.09509686    14.05285889
 C      7   6   4     1.456028139182   118.45166050    65.18146657
 H      8   7   6     1.086454652948   118.76279273   359.12854362
 C      2   1   3     1.855676930259   121.56966668   101.05127520
 C      2   1   3     1.858759685973   123.31191601   336.27367032
 C      2   1   3     1.855111102037   114.15971027   216.31260982
 C      3   1   2     1.862293011512   119.58981369   177.87271318
 C      3   1   2     1.860068705468   120.57231068   298.79007113
 C      3   1   2     1.860696864636   121.08830426    57.02354521
 C      4   1   2     1.850731123669   118.48708852   272.43317714
 C      4   1   2     1.856275417863   123.99891458    34.48583546
 C      4   1   2     1.851846157794   115.48427429   157.06752685
 C      5   1   2     1.851012249688   118.52621553    88.29994823
 C      5   1   2     1.853057966122   122.86591652   326.80935909
 C      5   1   2     1.850700627292   116.37949423   204.20408868
 H      7   6   4     1.091740240625   110.18446279   206.30986443
 H      8   7   6     1.086471364417   118.76222650   138.78830192
 H     10   2   1     1.094033671219   109.56192786    48.27850866
 H     10   2   1     1.092510323155   109.92629705   288.92239690
 H     10   2   1     1.096640810341   110.95761752   168.63292311
 H     11   2   1     1.094815914169   108.77654055    64.07788022
 H     11   2   1     1.092648775723   109.94479240   305.98543004
 H     11   2   1     1.097431752295   112.10635847   184.61353311
 H     12   2   1     1.093643728867   108.26835033   302.55461886
 H     12   2   1     1.096909435582   112.06990652   181.65620960
 H     12   2   1     1.093024915301   110.26281537    60.18487629
 H     13   3   1     1.097355920159   112.18819537   179.79776864
 H     13   3   1     1.092412065831   109.40080909    58.34398803
 H     13   3   1     1.092688089095   109.20680857   301.06925015
 H     14   3   1     1.096120822369   110.78660029   178.13868869
 H     14   3   1     1.094367753283   109.08954505    58.14749529
 H     14   3   1     1.092005770674   111.21594720   298.81671335
 H     15   3   1     1.096076990903   110.58955305   182.62491617
 H     15   3   1     1.092145448387   111.09409872    62.33413873
 H     15   3   1     1.093489375135   109.38032637   302.70084398
 H     16   4   1     1.095277468329   109.50584872   182.84097644
 H     16   4   1     1.093502948533   109.92553676    62.93543265
 H     16   4   1     1.092637576466   110.63356976   303.04304154
 H     17   4   1     1.095772242071   110.27771346   160.05305866
 H     17   4   1     1.090299868597   111.27110989    38.64934340
 H     17   4   1     1.091980531237   109.01288838   279.10978301
 H     18   4   1     1.095996220717   111.14842560   169.60559577
 H     18   4   1     1.092726184254   108.79773815    48.80950863
 H     18   4   1     1.092249700530   110.32613730   290.21462294
 H     19   5   1     1.095140594305   109.45002270   176.85385125
 H     19   5   1     1.092680589988   110.39552029    56.84759766
 H     19   5   1     1.092920487850   110.27445229   296.97813596
 H     20   5   1     1.095789830754   110.52480609   185.75234481
 H     20   5   1     1.093219996235   109.45069931    66.17912131
 H     20   5   1     1.090569569164   110.88765660   306.88193938
 H     21   5   1     1.095943522621   111.27477852   188.12674655
 H     21   5   1     1.091965478435   110.50829576    67.16554938
 H     21   5   1     1.093067593246   108.50507036   308.71303669

---------------------------
INTERNAL COORDINATES (A.U.)
---------------------------
 Ru     0   0   0     0.000000000000     0.00000000     0.00000000
 P      1   0   0     4.323592279733     0.00000000     0.00000000
 P      1   2   0     4.356446819453   104.66221715     0.00000000
 P      1   2   3     4.391140716265    99.03821114   267.64910282
 P      1   2   3     4.375831560475    94.64310639    91.58788700
 H      4   1   2     5.314888977258    66.77219588   215.85148878
 C      6   4   1     2.063075242065    89.09509686    14.05285889
 C      7   6   4     2.751494426338   118.45166050    65.18146657
 H      8   7   6     2.053101750997   118.76279273   359.12854362
 C      2   1   3     3.506721191226   121.56966668   101.05127520
 C      2   1   3     3.512546755262   123.31191601   336.27367032
 C      2   1   3     3.505651930846   114.15971027   216.31260982
 C      3   1   2     3.519223772873   119.58981369   177.87271318
 C      3   1   2     3.515020443611   120.57231068   298.79007113
 C      3   1   2     3.516207492408   121.08830426    57.02354521
 C      4   1   2     3.497374971259   118.48708852   272.43317714
 C      4   1   2     3.507852168891   123.99891458    34.48583546
 C      4   1   2     3.499482080385   115.48427429   157.06752685
 C      5   1   2     3.497906222443   118.52621553    88.29994823
 C      5   1   2     3.501772066253   122.86591652   326.80935909
 C      5   1   2     3.497317341458   116.37949423   204.20408868
 H      7   6   4     2.063090064163   110.18446279   206.30986443
 H      8   7   6     2.053133331097   118.76222650   138.78830192
 H     10   2   1     2.067424019893   109.56192786    48.27850866
 H     10   2   1     2.064545309245   109.92629705   288.92239690
 H     10   2   1     2.072350798827   110.95761752   168.63292311
 H     11   2   1     2.068902244838   108.77654055    64.07788022
 H     11   2   1     2.064806946682   109.94479240   305.98543004
 H     11   2   1     2.073845462507   112.10635847   184.61353311
 H     12   2   1     2.066687135639   108.26835033   302.55461886
 H     12   2   1     2.072858426964   112.06990652   181.65620960
 H     12   2   1     2.065517747472   110.26281537    60.18487629
 H     13   3   1     2.073702160539   112.18819537   179.79776864
 H     13   3   1     2.064359629812   109.40080909    58.34398803
 H     13   3   1     2.064881238186   109.20680857   301.06925015
 H     14   3   1     2.071368163965   110.78660029   178.13868869
 H     14   3   1     2.068055343499   109.08954505    58.14749529
 H     14   3   1     2.063591843236   111.21594720   298.81671335
 H     15   3   1     2.071285334499   110.58955305   182.62491617
 H     15   3   1     2.063855795861   111.09409872    62.33413873
 H     15   3   1     2.066395449359   109.38032637   302.70084398
 H     16   4   1     2.069774455796   109.50584872   182.84097644
 H     16   4   1     2.066421099362   109.92553676    62.93543265
 H     16   4   1     2.064785783152   110.63356976   303.04304154
 H     17   4   1     2.070709442667   110.27771346   160.05305866
 H     17   4   1     2.060368155498   111.27110989    38.64934340
 H     17   4   1     2.063544147612   109.01288838   279.10978301
 H     18   4   1     2.071132700968   111.14842560   169.60559577
 H     18   4   1     2.064953227605   108.79773815    48.80950863
 H     18   4   1     2.064052803858   110.32613730   290.21462294
 H     19   5   1     2.069515801376   109.45002270   176.85385125
 H     19   5   1     2.064867066929   110.39552029    56.84759766
 H     19   5   1     2.065320408188   110.27445229   296.97813596
 H     20   5   1     2.070742680461   110.52480609   185.75234481
 H     20   5   1     2.065886397011   109.45069931    66.17912131
 H     20   5   1     2.060877815709   110.88765660   306.88193938
 H     21   5   1     2.071033116000   111.27477852   188.12674655
 H     21   5   1     2.063515701938   110.50829576    67.16554938
 H     21   5   1     2.065598397100   108.50507036   308.71303669

---------------------
BASIS SET INFORMATION
---------------------
There are 4 groups of distinct atoms

 Group   1 Type Ru  : 7s7p5d2f1g contracted to 6s4p3d2f1g pattern {211111/4111/311/11/1}
 Group   2 Type P   : 15s9p4d1f contracted to 6s5p4d1f pattern {732111/51111/1111/1}
 Group   3 Type H   : 5s3p1d contracted to 3s3p1d pattern {311/111/1}
 Group   4 Type C   : 12s6p3d1f contracted to 6s3p3d1f pattern {621111/411/111/1}

Atom   0Ru   basis set group =>   1
Atom   1P    basis set group =>   2
Atom   2P    basis set group =>   2
Atom   3P    basis set group =>   2
Atom   4P    basis set group =>   2
Atom   5H    basis set group =>   3
Atom   6C    basis set group =>   4
Atom   7C    basis set group =>   4
Atom   8H    basis set group =>   3
Atom   9C    basis set group =>   4
Atom  10C    basis set group =>   4
Atom  11C    basis set group =>   4
Atom  12C    basis set group =>   4
Atom  13C    basis set group =>   4
Atom  14C    basis set group =>   4
Atom  15C    basis set group =>   4
Atom  16C    basis set group =>   4
Atom  17C    basis set group =>   4
Atom  18C    basis set group =>   4
Atom  19C    basis set group =>   4
Atom  20C    basis set group =>   4
Atom  21H    basis set group =>   3
Atom  22H    basis set group =>   3
Atom  23H    basis set group =>   3
Atom  24H    basis set group =>   3
Atom  25H    basis set group =>   3
Atom  26H    basis set group =>   3
Atom  27H    basis set group =>   3
Atom  28H    basis set group =>   3
Atom  29H    basis set group =>   3
Atom  30H    basis set group =>   3
Atom  31H    basis set group =>   3
Atom  32H    basis set group =>   3
Atom  33H    basis set group =>   3
Atom  34H    basis set group =>   3
Atom  35H    basis set group =>   3
Atom  36H    basis set group =>   3
Atom  37H    basis set group =>   3
Atom  38H    basis set group =>   3
Atom  39H    basis set group =>   3
Atom  40H    basis set group =>   3
Atom  41H    basis set group =>   3
Atom  42H    basis set group =>   3
Atom  43H    basis set group =>   3
Atom  44H    basis set group =>   3
Atom  45H    basis set group =>   3
Atom  46H    basis set group =>   3
Atom  47H    basis set group =>   3
Atom  48H    basis set group =>   3
Atom  49H    basis set group =>   3
Atom  50H    basis set group =>   3
Atom  51H    basis set group =>   3
Atom  52H    basis set group =>   3
Atom  53H    basis set group =>   3
Atom  54H    basis set group =>   3
Atom  55H    basis set group =>   3
Atom  56H    basis set group =>   3
Atom  57H    basis set group =>   3
Atom  58H    basis set group =>   3
---------------------------------
AUXILIARY/C BASIS SET INFORMATION
---------------------------------
There are 4 groups of distinct atoms

 Group   1 Type Ru  : 8s7p6d5f4g3h1i contracted to 8s7p6d5f4g3h1i pattern {11111111/1111111/111111/11111/1111/111/1}
 Group   2 Type P   : 12s9p8d6f2g contracted to 12s9p8d6f2g pattern {111111111111/111111111/11111111/111111/11}
 Group   3 Type H   : 5s4p3d1f contracted to 5s4p3d1f pattern {11111/1111/111/1}
 Group   4 Type C   : 9s7p6d4f1g contracted to 9s7p5d4f1g pattern {111111111/1111111/21111/1111/1}

Atom   0Ru   basis set group =>   1
Atom   1P    basis set group =>   2
Atom   2P    basis set group =>   2
Atom   3P    basis set group =>   2
Atom   4P    basis set group =>   2
Atom   5H    basis set group =>   3
Atom   6C    basis set group =>   4
Atom   7C    basis set group =>   4
Atom   8H    basis set group =>   3
Atom   9C    basis set group =>   4
Atom  10C    basis set group =>   4
Atom  11C    basis set group =>   4
Atom  12C    basis set group =>   4
Atom  13C    basis set group =>   4
Atom  14C    basis set group =>   4
Atom  15C    basis set group =>   4
Atom  16C    basis set group =>   4
Atom  17C    basis set group =>   4
Atom  18C    basis set group =>   4
Atom  19C    basis set group =>   4
Atom  20C    basis set group =>   4
Atom  21H    basis set group =>   3
Atom  22H    basis set group =>   3
Atom  23H    basis set group =>   3
Atom  24H    basis set group =>   3
Atom  25H    basis set group =>   3
Atom  26H    basis set group =>   3
Atom  27H    basis set group =>   3
Atom  28H    basis set group =>   3
Atom  29H    basis set group =>   3
Atom  30H    basis set group =>   3
Atom  31H    basis set group =>   3
Atom  32H    basis set group =>   3
Atom  33H    basis set group =>   3
Atom  34H    basis set group =>   3
Atom  35H    basis set group =>   3
Atom  36H    basis set group =>   3
Atom  37H    basis set group =>   3
Atom  38H    basis set group =>   3
Atom  39H    basis set group =>   3
Atom  40H    basis set group =>   3
Atom  41H    basis set group =>   3
Atom  42H    basis set group =>   3
Atom  43H    basis set group =>   3
Atom  44H    basis set group =>   3
Atom  45H    basis set group =>   3
Atom  46H    basis set group =>   3
Atom  47H    basis set group =>   3
Atom  48H    basis set group =>   3
Atom  49H    basis set group =>   3
Atom  50H    basis set group =>   3
Atom  51H    basis set group =>   3
Atom  52H    basis set group =>   3
Atom  53H    basis set group =>   3
Atom  54H    basis set group =>   3
Atom  55H    basis set group =>   3
Atom  56H    basis set group =>   3
Atom  57H    basis set group =>   3
Atom  58H    basis set group =>   3
----------------------------------
AUXILIARY/JK BASIS SET INFORMATION
----------------------------------
There are 4 groups of distinct atoms

 Group   1 Type Ru  : 13s12p10d9f6g3h2i contracted to 11s10p9d8f6g3h2i pattern {31111111111/3111111111/211111111/21111111/111111/111/11}
 Group   2 Type P   : 16s12p10d4f1g contracted to 13s11p9d4f1g pattern {4111111111111/21111111111/211111111/1111/1}
 Group   3 Type H   : 4s2p2d contracted to 2s2p2d pattern {31/11/11}
 Group   4 Type C   : 14s10p6d2f1g contracted to 10s8p5d1f1g pattern {5111111111/31111111/21111/2/1}

Atom   0Ru   basis set group =>   1
Atom   1P    basis set group =>   2
Atom   2P    basis set group =>   2
Atom   3P    basis set group =>   2
Atom   4P    basis set group =>   2
Atom   5H    basis set group =>   3
Atom   6C    basis set group =>   4
Atom   7C    basis set group =>   4
Atom   8H    basis set group =>   3
Atom   9C    basis set group =>   4
Atom  10C    basis set group =>   4
Atom  11C    basis set group =>   4
Atom  12C    basis set group =>   4
Atom  13C    basis set group =>   4
Atom  14C    basis set group =>   4
Atom  15C    basis set group =>   4
Atom  16C    basis set group =>   4
Atom  17C    basis set group =>   4
Atom  18C    basis set group =>   4
Atom  19C    basis set group =>   4
Atom  20C    basis set group =>   4
Atom  21H    basis set group =>   3
Atom  22H    basis set group =>   3
Atom  23H    basis set group =>   3
Atom  24H    basis set group =>   3
Atom  25H    basis set group =>   3
Atom  26H    basis set group =>   3
Atom  27H    basis set group =>   3
Atom  28H    basis set group =>   3
Atom  29H    basis set group =>   3
Atom  30H    basis set group =>   3
Atom  31H    basis set group =>   3
Atom  32H    basis set group =>   3
Atom  33H    basis set group =>   3
Atom  34H    basis set group =>   3
Atom  35H    basis set group =>   3
Atom  36H    basis set group =>   3
Atom  37H    basis set group =>   3
Atom  38H    basis set group =>   3
Atom  39H    basis set group =>   3
Atom  40H    basis set group =>   3
Atom  41H    basis set group =>   3
Atom  42H    basis set group =>   3
Atom  43H    basis set group =>   3
Atom  44H    basis set group =>   3
Atom  45H    basis set group =>   3
Atom  46H    basis set group =>   3
Atom  47H    basis set group =>   3
Atom  48H    basis set group =>   3
Atom  49H    basis set group =>   3
Atom  50H    basis set group =>   3
Atom  51H    basis set group =>   3
Atom  52H    basis set group =>   3
Atom  53H    basis set group =>   3
Atom  54H    basis set group =>   3
Atom  55H    basis set group =>   3
Atom  56H    basis set group =>   3
Atom  57H    basis set group =>   3
Atom  58H    basis set group =>   3
-------------------------
ECP PARAMETER INFORMATION
-------------------------

 Group 1, Type Ru ECP Def2-ECP (replacing 28 core electrons, lmax=3)

Atom   0Ru   ECP group =>   1



           ************************************************************
           *        Program running with 24 parallel MPI-processes    *
           *              working on a common directory               *
           ************************************************************
------------------------------------------------------------------------------
                           ORCA GTO INTEGRAL CALCULATION
                           -- RI-GTO INTEGRALS CHOSEN --
------------------------------------------------------------------------------

                         BASIS SET STATISTICS AND STARTUP INFO

Gaussian basis set:
 # of primitive gaussian shells          ...  806
 # of primitive gaussian functions       ... 1840
 # of contracted shells                  ...  542
 # of contracted basis functions         ... 1446
 Highest angular momentum                ...    4
 Maximum contraction depth               ...    7
Auxiliary gaussian basis set:
 # of primitive gaussian shells          ... 1009
 # of primitive gaussian functions       ... 2989
 # of contracted shells                  ...  791
 # of contracted aux-basis functions     ... 2537
 Highest angular momentum                ...    6
 Maximum contraction depth               ...    5
Ratio of auxiliary to basis functions    ...  1.75
Integral package used                  ... LIBINT
 One Electron integrals                  
   ECP integrals                         ... done
 Ordering auxiliary basis shells         ... done
 Integral threshhold             Thresh  ...  1.000e-10
 Primitive cut-off               TCut    ...  1.000e-11
 Pre-screening matrix                    ... done
 Shell pair data                         ... 
 Ordering of the shell pairs             ... done (   0.024 sec) 115393 of 147153 pairs
 Determination of significant pairs      ... done (   0.001 sec)
 Creation of shell pair data             ... done (   0.012 sec)
 Storage of shell pair data              ... done (   0.015 sec)
 Shell pair data done in (   0.052 sec)
 Computing two index integrals           ... done
 Cholesky decomposition of the V-matrix  ... done


Timings:
 Total evaluation time                   ...   9.560 sec (  0.159 min)
 One electron matrix time                ...   8.202 sec (  0.137 min) = 85.8%
 Schwartz matrix evaluation time         ...   0.745 sec (  0.012 min) =  7.8%
 Two index repulsion integral time       ...   0.237 sec (  0.004 min) =  2.5%
 Cholesky decomposition of V             ...   0.294 sec (  0.005 min) =  3.1%
 Three index repulsion integral time     ...   0.000 sec (  0.000 min) =  0.0%



           ************************************************************
           *        Program running with 24 parallel MPI-processes    *
           *              working on a common directory               *
           ************************************************************
-------------------------------------------------------------------------------
                                 ORCA SCF
-------------------------------------------------------------------------------

------------
SCF SETTINGS
------------
Hamiltonian:
 Density Functional     Method          .... DFT(GTOs)
 Exchange Functional    Exchange        .... B88
   X-Alpha parameter    XAlpha          ....  0.666667
   Becke's b parameter  XBeta           ....  0.004200
 Correlation Functional Correlation     .... LYP
 LDA part of GGA corr.  LDAOpt          .... VWN-5
 Gradients option       PostSCFGGA      .... off
 Hybrid DFT is turned on
   Fraction HF Exchange ScalHFX         ....  0.710000
   Scaling of DF-GGA-X  ScalDFX         ....  0.290000
   Scaling of DF-GGA-C  ScalDFC         ....  0.540000
   Scaling of DF-LDA-C  ScalLDAC        ....  0.540000
   Perturbative correction              ....  1.000000
   Density functional embedding theory  .... OFF
 RI-approximation to the Coulomb term is turned on
   Number of auxiliary basis functions  .... 2537
   RI-JK (J+K treated both via RI)      .... on


General Settings:
 Integral files         IntName         .... MOR16_ed33
 Hartree-Fock type      HFTyp           .... RHF
 Total Charge           Charge          ....    0
 Multiplicity           Mult            ....    1
 Number of Electrons    NEL             ....  200
 Basis Dimension        Dim             .... 1446
 Nuclear Repulsion      ENuc            ....   2806.8724721201 Eh

Convergence Acceleration:
 DIIS                   CNVDIIS         .... on
   Start iteration      DIISMaxIt       ....    12
   Startup error        DIISStart       ....  0.200000
   # of expansion vecs  DIISMaxEq       ....     5
   Bias factor          DIISBfac        ....   1.050
   Max. coefficient     DIISMaxC        ....  10.000
 Newton-Raphson         CNVNR           .... off
 SOSCF                  CNVSOSCF        .... off
 Level Shifting         CNVShift        .... on
   Level shift para.    LevelShift      ....    0.2500
   Turn off err/grad.   ShiftErr        ....    0.0010
 Zerner damping         CNVZerner       .... off
 Static damping         CNVDamp         .... on
   Fraction old density DampFac         ....    0.7000
   Max. Damping (<1)    DampMax         ....    0.9800
   Min. Damping (>=0)   DampMin         ....    0.0000
   Turn off err/grad.   DampErr         ....    0.1000
 Fernandez-Rico         CNVRico         .... off

SCF Procedure:
 Maximum # iterations   MaxIter         ....   125
 SCF integral mode      SCFMode         .... Direct
   Integral package                     .... LIBINT
 Reset frequency        DirectResetFreq ....    20
 Integral Threshold     Thresh          ....  1.000e-10 Eh
 Primitive CutOff       TCut            ....  1.000e-11 Eh

Convergence Tolerance:
 Convergence Check Mode ConvCheckMode   .... Total+1el-Energy
 Convergence forced     ConvForced      .... 0
 Energy Change          TolE            ....  1.000e-06 Eh
 1-El. energy change                    ....  1.000e-03 Eh
 DIIS Error             TolErr          ....  1.000e-06


Diagonalization of the overlap matrix:
Smallest eigenvalue                        ... 7.337e-07
Time for diagonalization                   ...    0.278 sec
Threshold for overlap eigenvalues          ... 1.000e-08
Number of eigenvalues below threshold      ... 0
Time for construction of square roots      ...    0.264 sec
Total time needed                          ...    0.549 sec

-------------------
DFT GRID GENERATION
-------------------

General Integration Accuracy     IntAcc      ...  4.670
Radial Grid Type                 RadialGrid  ... Gauss-Chebyshev
Angular Grid (max. acc.)         AngularGrid ... Lebedev-302
Angular grid pruning method      GridPruning ... 3 (G Style)
Weight generation scheme         WeightScheme... Becke
Basis function cutoff            BFCut       ...    1.0000e-10
Integration weight cutoff        WCut        ...    1.0000e-14
Grids for H and He will be reduced by one unit

# of grid points (after initial pruning)     ... 260626 (   0.0 sec)
# of grid points (after weights+screening)   ... 219551 (   0.3 sec)
nearest neighbour list constructed           ...    0.0 sec
Grid point re-assignment to atoms done       ...    0.0 sec
Grid point division into batches done        ...    0.6 sec
Reduced shell lists constructed in    2.0 sec

Total number of grid points                  ...   219551
Total number of batches                      ...     3458
Average number of points per batch           ...       63
Average number of grid points per atom       ...     3721
Average number of shells per batch           ...   329.74 (60.84%)
Average number of basis functions per batch  ...   857.84 (59.32%)
Average number of large shells per batch     ...   241.73 (73.31%)
Average number of large basis fcns per batch ...   633.62 (73.86%)
Average number of aux-shells per batch       ...   329.74 (41.69%)
Average number of aux functions per batch    ...   857.84 (33.81%)
Maximum spatial batch extension              ...   2.76,  2.45,  3.92 au
Average spatial batch extension              ...   0.04,  0.05,  0.05 au

Time for grid setup =    2.323 sec

------------------------------
INITIAL GUESS: MODEL POTENTIAL
------------------------------
Loading Hartree-Fock densities                     ... done
  calling /sw/apps/orca/orca_4_2_0_linux_x86-64_openmpi314/orca MOR16_ed33_atom44.inp > MOR16_ed33_atom44.out in order to generate an atomic fitting density for atom 0 (Ru with ECP) on-the-fly... 
    atom 0 (Ru), assumed electronic state with S=5: 1s2 2s2 2p6 3s2 3p6 4s2 3d10 4p6 5s2 4d6           ... done
Calculating cut-offs                               ... done
Setting up the integral package                    ... done
Initializing the effective Hamiltonian             ... done
Starting the Coulomb interaction                   ... done (   0.4 sec)
Reading the grid                                   ... done
Mapping shells                                     ... done
Starting the XC term evaluation                    ... done (   1.3 sec)
  promolecular density results
     # of electrons  =    227.979369328
     EX              =   -303.891940546
     EC              =     -1.151368676
     EX+EC           =   -305.043309223
Transforming the Hamiltonian                       ... done (   0.2 sec)
Diagonalizing the Hamiltonian                      ... done (   0.3 sec)
Back transforming the eigenvectors                 ... done (   0.1 sec)
Now organizing SCF variables                       ... done
                      ------------------
                      INITIAL GUESS DONE (   7.0 sec)
                      ------------------
--------------
SCF ITERATIONS
--------------
ITER       Energy         Delta-E        Max-DP      RMS-DP      [F,P]     Damp
  0  -2013.4059469710   0.000000000000 0.39273182  0.00144959  0.3956453 0.7000
  1  -2013.1872232813   0.218723689653 0.33376019  0.00134762  0.2951975 0.7000
  2  -2013.4077137642  -0.220490482897 0.27351640  0.00101700  0.2089308 0.7000
                               ***Turning on DIIS***
  3  -2013.7740624496  -0.366348685345 0.21101394  0.00074453  0.1447152 0.7000
  4  -2014.1159374720  -0.341875022377 0.48370911  0.00176988  0.0981694 0.0000
  5  -2014.4946252197  -0.378687747723 0.15313050  0.00050305  0.0374710 0.0000
  6  -2014.5074853890  -0.012860169356 0.17584747  0.00026063  0.0267645 0.0000
  7  -2014.5137010446  -0.006215655570 0.88031411  0.00086010  0.0156798 0.0000
  8  -2014.5166673444  -0.002966299806 1.51316271  0.00145400  0.0104363 0.0000
  9  -2014.5180420073  -0.001374662847 0.49141178  0.00047626  0.0063936 0.0000
 10  -2014.5181741871  -0.000132179844 0.39036861  0.00037702  0.0010693 0.0000
 11  -2014.5181913815  -0.000017194357 0.50574793  0.00047687  0.0007967 0.0000
 12  -2014.5181992264  -0.000007844973 0.31437580  0.00030315  0.0007849 0.0000
 13  -2014.5182020245  -0.000002798036 0.10457995  0.00011882  0.0002613 0.0000
                 **** Energy Check signals convergence ****

               *****************************************************
               *                     SUCCESS                       *
               *           SCF CONVERGED AFTER  14 CYCLES          *
               *****************************************************


----------------
TOTAL SCF ENERGY
----------------

Total Energy       :        -2014.51820242 Eh          -54817.82717 eV

Components:
Nuclear Repulsion  :         2806.87247212 Eh           76378.88299 eV
Electronic Energy  :        -4821.39067454 Eh         -131196.71017 eV
One Electron Energy:        -8399.02511318 Eh         -228549.09254 eV
Two Electron Energy:         3577.63443865 Eh           97352.38238 eV

Virial components:
Potential Energy   :        -3965.23540521 Eh         -107899.54088 eV
Kinetic Energy     :         1950.71720280 Eh           53081.71371 eV
Virial Ratio       :            2.03270643


DFT components:
N(Alpha)           :       99.999483963709 electrons
N(Beta)            :       99.999483963709 electrons
N(Total)           :      199.998967927418 electrons
E(X)               :      -54.245391533274 Eh       
E(C)               :       -3.774621571658 Eh       
E(XC)              :      -58.020013104933 Eh       
DFET-embed. en.    :        0.000000000000 Eh       

---------------
SCF CONVERGENCE
---------------

  Last Energy change         ...   -3.9362e-07  Tolerance :   1.0000e-06
  Last MAX-Density change    ...    1.9144e-01  Tolerance :   1.0000e-05
  Last RMS-Density change    ...    1.8499e-04  Tolerance :   1.0000e-06
  Last DIIS Error            ...    5.5512e-05  Tolerance :   1.0000e-06

             **** THE GBW FILE WAS UPDATED (MOR16_ed33.gbw) ****
             **** DENSITY FILE WAS UPDATED (MOR16_ed33.scfp) ****
             **** ENERGY FILE WAS UPDATED (MOR16_ed33.en.tmp) ****
             **** THE GBW FILE WAS UPDATED (MOR16_ed33.gbw) ****
             **** DENSITY FILE WAS UPDATED (MOR16_ed33.scfp) ****
----------------
ORBITAL ENERGIES
----------------

  NO   OCC          E(Eh)            E(eV) 
   0   2.0000     -78.913559     -2147.3471 
   1   2.0000     -78.911722     -2147.2971 
   2   2.0000     -78.911508     -2147.2913 
   3   2.0000     -78.908304     -2147.2041 
   4   2.0000     -10.841376      -295.0088 
   5   2.0000     -10.839405      -294.9552 
   6   2.0000     -10.838863      -294.9405 
   7   2.0000     -10.838565      -294.9323 
   8   2.0000     -10.837764      -294.9106 
   9   2.0000     -10.836249      -294.8693 
  10   2.0000     -10.835764      -294.8561 
  11   2.0000     -10.835479      -294.8484 
  12   2.0000     -10.835009      -294.8356 
  13   2.0000     -10.834569      -294.8236 
  14   2.0000     -10.831877      -294.7503 
  15   2.0000     -10.831846      -294.7495 
  16   2.0000     -10.793406      -293.7035 
  17   2.0000     -10.785990      -293.5017 
  18   2.0000      -7.147878      -194.5037 
  19   2.0000      -7.146100      -194.4553 
  20   2.0000      -7.144462      -194.4107 
  21   2.0000      -7.141231      -194.3228 
  22   2.0000      -5.139937      -139.8648 
  23   2.0000      -5.139745      -139.8596 
  24   2.0000      -5.138125      -139.8155 
  25   2.0000      -5.137950      -139.8107 
  26   2.0000      -5.137515      -139.7989 
  27   2.0000      -5.136628      -139.7748 
  28   2.0000      -5.136305      -139.7660 
  29   2.0000      -5.135706      -139.7497 
  30   2.0000      -5.134175      -139.7080 
  31   2.0000      -5.133338      -139.6852 
  32   2.0000      -5.133180      -139.6809 
  33   2.0000      -5.131027      -139.6223 
  34   2.0000      -3.286481       -89.4297 
  35   2.0000      -2.036461       -55.4149 
  36   2.0000      -2.032005       -55.2937 
  37   2.0000      -2.027294       -55.1655 
  38   2.0000      -0.938014       -25.5247 
  39   2.0000      -0.930838       -25.3294 
  40   2.0000      -0.924704       -25.1625 
  41   2.0000      -0.922363       -25.0988 
  42   2.0000      -0.867090       -23.5947 
  43   2.0000      -0.851442       -23.1689 
  44   2.0000      -0.849257       -23.1095 
  45   2.0000      -0.848035       -23.0762 
  46   2.0000      -0.841897       -22.9092 
  47   2.0000      -0.839280       -22.8380 
  48   2.0000      -0.838988       -22.8300 
  49   2.0000      -0.838559       -22.8184 
  50   2.0000      -0.836680       -22.7672 
  51   2.0000      -0.675761       -18.3884 
  52   2.0000      -0.672118       -18.2893 
  53   2.0000      -0.653930       -17.7943 
  54   2.0000      -0.650853       -17.7106 
  55   2.0000      -0.648402       -17.6439 
  56   2.0000      -0.565546       -15.3893 
  57   2.0000      -0.562036       -15.2938 
  58   2.0000      -0.553934       -15.0733 
  59   2.0000      -0.546958       -14.8835 
  60   2.0000      -0.540608       -14.7107 
  61   2.0000      -0.537072       -14.6145 
  62   2.0000      -0.533282       -14.5113 
  63   2.0000      -0.530385       -14.4325 
  64   2.0000      -0.524641       -14.2762 
  65   2.0000      -0.520866       -14.1735 
  66   2.0000      -0.516209       -14.0468 
  67   2.0000      -0.511854       -13.9283 
  68   2.0000      -0.509945       -13.8763 
  69   2.0000      -0.498664       -13.5694 
  70   2.0000      -0.495022       -13.4702 
  71   2.0000      -0.493127       -13.4187 
  72   2.0000      -0.489641       -13.3238 
  73   2.0000      -0.487245       -13.2586 
  74   2.0000      -0.485819       -13.2198 
  75   2.0000      -0.483583       -13.1590 
  76   2.0000      -0.480363       -13.0714 
  77   2.0000      -0.478901       -13.0316 
  78   2.0000      -0.477501       -12.9935 
  79   2.0000      -0.474639       -12.9156 
  80   2.0000      -0.471131       -12.8201 
  81   2.0000      -0.467721       -12.7273 
  82   2.0000      -0.424054       -11.5391 
  83   2.0000      -0.421017       -11.4565 
  84   2.0000      -0.414552       -11.2805 
  85   2.0000      -0.410489       -11.1700 
  86   2.0000      -0.407105       -11.0779 
  87   2.0000      -0.404194       -10.9987 
  88   2.0000      -0.400182       -10.8895 
  89   2.0000      -0.398969       -10.8565 
  90   2.0000      -0.395906       -10.7731 
  91   2.0000      -0.395116       -10.7517 
  92   2.0000      -0.365157        -9.9364 
  93   2.0000      -0.360393        -9.8068 
  94   2.0000      -0.315035        -8.5725 
  95   2.0000      -0.302044        -8.2190 
  96   2.0000      -0.270856        -7.3704 
  97   2.0000      -0.263422        -7.1681 
  98   2.0000      -0.233795        -6.3619 
  99   2.0000      -0.199445        -5.4272 
 100   0.0000       0.033369         0.9080 
 101   0.0000       0.046413         1.2630 
 102   0.0000       0.049246         1.3401 
 103   0.0000       0.053402         1.4531 
 104   0.0000       0.065579         1.7845 
 105   0.0000       0.066182         1.8009 
 106   0.0000       0.068058         1.8520 
 107   0.0000       0.069525         1.8919 
 108   0.0000       0.076905         2.0927 
 109   0.0000       0.085426         2.3246 
 110   0.0000       0.085802         2.3348 
 111   0.0000       0.088758         2.4152 
 112   0.0000       0.090809         2.4710 
 113   0.0000       0.093809         2.5527 
 114   0.0000       0.103806         2.8247 
 115   0.0000       0.105252         2.8640 
 116   0.0000       0.109590         2.9821 
 117   0.0000       0.112995         3.0748 
 118   0.0000       0.120193         3.2706 
 119   0.0000       0.124786         3.3956 
 120   0.0000       0.127933         3.4812 
 121   0.0000       0.130343         3.5468 
 122   0.0000       0.135062         3.6752 
 123   0.0000       0.136793         3.7223 
 124   0.0000       0.139307         3.7907 
 125   0.0000       0.143939         3.9168 
 126   0.0000       0.148340         4.0365 
 127   0.0000       0.151453         4.1213 
 128   0.0000       0.155762         4.2385 
 129   0.0000       0.158664         4.3175 
 130   0.0000       0.160551         4.3688 
 131   0.0000       0.161606         4.3975 
 132   0.0000       0.164925         4.4878 
 133   0.0000       0.167131         4.5479 
 134   0.0000       0.170207         4.6316 
 135   0.0000       0.172397         4.6912 
 136   0.0000       0.175027         4.7627 
 137   0.0000       0.177647         4.8340 
 138   0.0000       0.178130         4.8472 
 139   0.0000       0.180215         4.9039 
 140   0.0000       0.183376         4.9899 
 141   0.0000       0.184715         5.0263 
 142   0.0000       0.188653         5.1335 
 143   0.0000       0.190603         5.1866 
 144   0.0000       0.194357         5.2887 
 145   0.0000       0.197371         5.3707 
 146   0.0000       0.200167         5.4468 
 147   0.0000       0.202553         5.5117 
 148   0.0000       0.203705         5.5431 
 149   0.0000       0.206608         5.6221 
 150   0.0000       0.208351         5.6695 
 151   0.0000       0.210843         5.7373 
 152   0.0000       0.212100         5.7715 
 153   0.0000       0.214880         5.8472 
 154   0.0000       0.219655         5.9771 
 155   0.0000       0.220943         6.0122 
 156   0.0000       0.223694         6.0870 
 157   0.0000       0.227499         6.1906 
 158   0.0000       0.230250         6.2654 
 159   0.0000       0.234270         6.3748 
 160   0.0000       0.236068         6.4237 
 161   0.0000       0.239128         6.5070 
 162   0.0000       0.240281         6.5384 
 163   0.0000       0.244546         6.6544 
 164   0.0000       0.247870         6.7449 
 165   0.0000       0.248476         6.7614 
 166   0.0000       0.251069         6.8319 
 167   0.0000       0.251447         6.8422 
 168   0.0000       0.258709         7.0398 
 169   0.0000       0.260022         7.0756 
 170   0.0000       0.263530         7.1710 
 171   0.0000       0.265989         7.2379 
 172   0.0000       0.267827         7.2880 
 173   0.0000       0.270595         7.3633 
 174   0.0000       0.273417         7.4401 
 175   0.0000       0.276517         7.5244 
 176   0.0000       0.278776         7.5859 
 177   0.0000       0.281513         7.6604 
 178   0.0000       0.283765         7.7216 
 179   0.0000       0.285073         7.7572 
 180   0.0000       0.288683         7.8555 
 181   0.0000       0.289737         7.8842 
 182   0.0000       0.291879         7.9424 
 183   0.0000       0.292921         7.9708 
 184   0.0000       0.293755         7.9935 
 185   0.0000       0.296869         8.0782 
 186   0.0000       0.302583         8.2337 
 187   0.0000       0.303009         8.2453 
 188   0.0000       0.305518         8.3136 
 189   0.0000       0.307556         8.3690 
 190   0.0000       0.308766         8.4020 
 191   0.0000       0.314561         8.5596 
 192   0.0000       0.315010         8.5719 
 193   0.0000       0.320609         8.7242 
 194   0.0000       0.322453         8.7744 
 195   0.0000       0.323995         8.8164 
 196   0.0000       0.324900         8.8410 
 197   0.0000       0.326388         8.8815 
 198   0.0000       0.327837         8.9209 
 199   0.0000       0.331162         9.0114 
 200   0.0000       0.333997         9.0885 
 201   0.0000       0.335266         9.1230 
 202   0.0000       0.337695         9.1892 
 203   0.0000       0.339923         9.2498 
 204   0.0000       0.343880         9.3574 
 205   0.0000       0.346003         9.4152 
 206   0.0000       0.347908         9.4670 
 207   0.0000       0.350271         9.5314 
 208   0.0000       0.352630         9.5955 
 209   0.0000       0.353793         9.6272 
 210   0.0000       0.355086         9.6624 
 211   0.0000       0.357206         9.7201 
 212   0.0000       0.360462         9.8087 
 213   0.0000       0.362585         9.8664 
 214   0.0000       0.363529         9.8921 
 215   0.0000       0.365207         9.9378 
 216   0.0000       0.367048         9.9879 
 217   0.0000       0.369673        10.0593 
 218   0.0000       0.372837        10.1454 
 219   0.0000       0.374333        10.1861 
 220   0.0000       0.377646        10.2763 
 221   0.0000       0.379701        10.3322 
 222   0.0000       0.383628        10.4390 
 223   0.0000       0.387023        10.5314 
 224   0.0000       0.389582        10.6011 
 225   0.0000       0.390630        10.6296 
 226   0.0000       0.392256        10.6738 
 227   0.0000       0.394732        10.7412 
 228   0.0000       0.398920        10.8552 
 229   0.0000       0.399826        10.8798 
 230   0.0000       0.401459        10.9243 
 231   0.0000       0.404051        10.9948 
 232   0.0000       0.404977        11.0200 
 233   0.0000       0.406198        11.0532 
 234   0.0000       0.408411        11.1134 
 235   0.0000       0.411748        11.2042 
 236   0.0000       0.412201        11.2166 
 237   0.0000       0.412912        11.2359 
 238   0.0000       0.418696        11.3933 
 239   0.0000       0.421034        11.4569 
 240   0.0000       0.421879        11.4799 
 241   0.0000       0.425638        11.5822 
 242   0.0000       0.427310        11.6277 
 243   0.0000       0.429109        11.6766 
 244   0.0000       0.433660        11.8005 
 245   0.0000       0.436736        11.8842 
 246   0.0000       0.437310        11.8998 
 247   0.0000       0.440767        11.9939 
 248   0.0000       0.444976        12.1084 
 249   0.0000       0.448141        12.1945 
 250   0.0000       0.450656        12.2630 
 251   0.0000       0.452074        12.3016 
 252   0.0000       0.455418        12.3925 
 253   0.0000       0.455838        12.4040 
 254   0.0000       0.458254        12.4697 
 255   0.0000       0.459708        12.5093 
 256   0.0000       0.464157        12.6304 
 257   0.0000       0.467236        12.7141 
 258   0.0000       0.467786        12.7291 
 259   0.0000       0.469802        12.7840 
 260   0.0000       0.472270        12.8511 
 261   0.0000       0.474139        12.9020 
 262   0.0000       0.476779        12.9738 
 263   0.0000       0.478512        13.0210 
 264   0.0000       0.481495        13.1021 
 265   0.0000       0.482972        13.1423 
 266   0.0000       0.484415        13.1816 
 267   0.0000       0.487904        13.2765 
 268   0.0000       0.490916        13.3585 
 269   0.0000       0.491711        13.3801 
 270   0.0000       0.492820        13.4103 
 271   0.0000       0.498687        13.5700 
 272   0.0000       0.499888        13.6026 
 273   0.0000       0.500634        13.6229 
 274   0.0000       0.504835        13.7373 
 275   0.0000       0.507823        13.8186 
 276   0.0000       0.509017        13.8511 
 277   0.0000       0.513942        13.9851 
 278   0.0000       0.515127        14.0173 
 279   0.0000       0.519565        14.1381 
 280   0.0000       0.520882        14.1739 
 281   0.0000       0.522439        14.2163 
 282   0.0000       0.524646        14.2764 
 283   0.0000       0.525015        14.2864 
 284   0.0000       0.530753        14.4425 
 285   0.0000       0.533439        14.5156 
 286   0.0000       0.535612        14.5748 
 287   0.0000       0.537466        14.6252 
 288   0.0000       0.539087        14.6693 
 289   0.0000       0.543356        14.7855 
 290   0.0000       0.544247        14.8097 
 291   0.0000       0.546287        14.8652 
 292   0.0000       0.549146        14.9430 
 293   0.0000       0.551203        14.9990 
 294   0.0000       0.555467        15.1150 
 295   0.0000       0.557031        15.1576 
 296   0.0000       0.560487        15.2516 
 297   0.0000       0.561722        15.2852 
 298   0.0000       0.563092        15.3225 
 299   0.0000       0.564007        15.3474 
 300   0.0000       0.565638        15.3918 
 301   0.0000       0.567919        15.4539 
 302   0.0000       0.569465        15.4959 
 303   0.0000       0.573874        15.6159 
 304   0.0000       0.575079        15.6487 
 305   0.0000       0.578314        15.7367 
 306   0.0000       0.582633        15.8542 
 307   0.0000       0.585363        15.9285 
 308   0.0000       0.586914        15.9707 
 309   0.0000       0.591250        16.0887 
 310   0.0000       0.591410        16.0931 
 311   0.0000       0.594850        16.1867 
 312   0.0000       0.596761        16.2387 
 313   0.0000       0.601936        16.3795 
 314   0.0000       0.603702        16.4276 
 315   0.0000       0.605609        16.4794 
 316   0.0000       0.611403        16.6371 
 317   0.0000       0.615746        16.7553 
 318   0.0000       0.618116        16.8198 
 319   0.0000       0.623244        16.9593 
 320   0.0000       0.624361        16.9897 
 321   0.0000       0.626233        17.0407 
 322   0.0000       0.628104        17.0916 
 323   0.0000       0.629284        17.1237 
 324   0.0000       0.632848        17.2207 
 325   0.0000       0.636238        17.3129 
 326   0.0000       0.641318        17.4511 
 327   0.0000       0.641741        17.4627 
 328   0.0000       0.643921        17.5220 
 329   0.0000       0.645457        17.5638 
 330   0.0000       0.648084        17.6353 
 331   0.0000       0.649428        17.6718 
 332   0.0000       0.650962        17.7136 
 333   0.0000       0.654237        17.8027 
 334   0.0000       0.657485        17.8911 
 335   0.0000       0.660948        17.9853 
 336   0.0000       0.662642        18.0314 
 337   0.0000       0.668015        18.1776 
 338   0.0000       0.669908        18.2291 
 339   0.0000       0.670750        18.2520 
 340   0.0000       0.673881        18.3372 
 341   0.0000       0.674944        18.3661 
 342   0.0000       0.676510        18.4088 
 343   0.0000       0.680839        18.5266 
 344   0.0000       0.683252        18.5922 
 345   0.0000       0.685487        18.6531 
 346   0.0000       0.689094        18.7512 
 347   0.0000       0.689684        18.7672 
 348   0.0000       0.695011        18.9122 
 349   0.0000       0.696255        18.9461 
 350   0.0000       0.697040        18.9674 
 351   0.0000       0.699155        19.0250 
 352   0.0000       0.701175        19.0799 
 353   0.0000       0.705626        19.2011 
 354   0.0000       0.707472        19.2513 
 355   0.0000       0.708426        19.2772 
 356   0.0000       0.713779        19.4229 
 357   0.0000       0.714387        19.4394 
 358   0.0000       0.716311        19.4918 
 359   0.0000       0.719538        19.5796 
 360   0.0000       0.721655        19.6372 
 361   0.0000       0.725024        19.7289 
 362   0.0000       0.726300        19.7636 
 363   0.0000       0.730742        19.8845 
 364   0.0000       0.733178        19.9508 
 365   0.0000       0.734130        19.9767 
 366   0.0000       0.736700        20.0466 
 367   0.0000       0.738330        20.0910 
 368   0.0000       0.740676        20.1548 
 369   0.0000       0.742695        20.2098 
 370   0.0000       0.744309        20.2537 
 371   0.0000       0.746768        20.3206 
 372   0.0000       0.749689        20.4001 
 373   0.0000       0.751790        20.4573 
 374   0.0000       0.754975        20.5439 
 375   0.0000       0.756390        20.5824 
 376   0.0000       0.760374        20.6908 
 377   0.0000       0.762594        20.7512 
 378   0.0000       0.765514        20.8307 
 379   0.0000       0.769622        20.9425 
 380   0.0000       0.771530        20.9944 
 381   0.0000       0.773963        21.0606 
 382   0.0000       0.775806        21.1107 
 383   0.0000       0.780564        21.2402 
 384   0.0000       0.782807        21.3013 
 385   0.0000       0.783662        21.3245 
 386   0.0000       0.785616        21.3777 
 387   0.0000       0.787060        21.4170 
 388   0.0000       0.789202        21.4753 
 389   0.0000       0.790153        21.5012 
 390   0.0000       0.793807        21.6006 
 391   0.0000       0.796657        21.6781 
 392   0.0000       0.797651        21.7052 
 393   0.0000       0.800053        21.7705 
 394   0.0000       0.804593        21.8941 
 395   0.0000       0.806248        21.9391 
 396   0.0000       0.806903        21.9570 
 397   0.0000       0.808758        22.0074 
 398   0.0000       0.811056        22.0700 
 399   0.0000       0.811832        22.0911 
 400   0.0000       0.812707        22.1149 
 401   0.0000       0.814110        22.1531 
 402   0.0000       0.817459        22.2442 
 403   0.0000       0.819092        22.2886 
 404   0.0000       0.821965        22.3668 
 405   0.0000       0.822763        22.3885 
 406   0.0000       0.824746        22.4425 
 407   0.0000       0.827033        22.5047 
 408   0.0000       0.829449        22.5705 
 409   0.0000       0.829761        22.5789 
 410   0.0000       0.833305        22.6754 
 411   0.0000       0.835911        22.7463 
 412   0.0000       0.839433        22.8421 
 413   0.0000       0.840700        22.8766 
 414   0.0000       0.841474        22.8977 
 415   0.0000       0.843435        22.9510 
 416   0.0000       0.845864        23.0171 
 417   0.0000       0.847842        23.0710 
 418   0.0000       0.850957        23.1557 
 419   0.0000       0.852510        23.1980 
 420   0.0000       0.853317        23.2199 
 421   0.0000       0.856390        23.3035 
 422   0.0000       0.859580        23.3904 
 423   0.0000       0.863231        23.4897 
 424   0.0000       0.864086        23.5130 
 425   0.0000       0.866459        23.5776 
 426   0.0000       0.867971        23.6187 
 427   0.0000       0.869295        23.6547 
 428   0.0000       0.874106        23.7856 
 429   0.0000       0.874709        23.8020 
 430   0.0000       0.878556        23.9067 
 431   0.0000       0.882506        24.0142 
 432   0.0000       0.886463        24.1219 
 433   0.0000       0.891614        24.2620 
 434   0.0000       0.893356        24.3094 
 435   0.0000       0.893942        24.3254 
 436   0.0000       0.896599        24.3977 
 437   0.0000       0.898079        24.4380 
 438   0.0000       0.899493        24.4765 
 439   0.0000       0.903017        24.5723 
 440   0.0000       0.907403        24.6917 
 441   0.0000       0.911361        24.7994 
 442   0.0000       0.913081        24.8462 
 443   0.0000       0.914188        24.8763 
 444   0.0000       0.916210        24.9314 
 445   0.0000       0.920837        25.0572 
 446   0.0000       0.923371        25.1262 
 447   0.0000       0.925910        25.1953 
 448   0.0000       0.927492        25.2383 
 449   0.0000       0.931372        25.3439 
 450   0.0000       0.934191        25.4206 
 451   0.0000       0.935920        25.4677 
 452   0.0000       0.938892        25.5486 
 453   0.0000       0.941940        25.6315 
 454   0.0000       0.943626        25.6774 
 455   0.0000       0.945183        25.7197 
 456   0.0000       0.946539        25.7566 
 457   0.0000       0.951464        25.8907 
 458   0.0000       0.954880        25.9836 
 459   0.0000       0.957198        26.0467 
 460   0.0000       0.958783        26.0898 
 461   0.0000       0.960383        26.1333 
 462   0.0000       0.963388        26.2151 
 463   0.0000       0.968379        26.3509 
 464   0.0000       0.970774        26.4161 
 465   0.0000       0.974519        26.5180 
 466   0.0000       0.978470        26.6255 
 467   0.0000       0.979935        26.6654 
 468   0.0000       0.985906        26.8279 
 469   0.0000       0.987443        26.8697 
 470   0.0000       0.988063        26.8866 
 471   0.0000       0.990184        26.9443 
 472   0.0000       0.994194        27.0534 
 473   0.0000       0.997375        27.1400 
 474   0.0000       0.999962        27.2103 
 475   0.0000       1.004344        27.3296 
 476   0.0000       1.005167        27.3520 
 477   0.0000       1.007611        27.4185 
 478   0.0000       1.012909        27.5627 
 479   0.0000       1.015520        27.6337 
 480   0.0000       1.017428        27.6856 
 481   0.0000       1.023054        27.8387 
 482   0.0000       1.027391        27.9567 
 483   0.0000       1.030078        28.0299 
 484   0.0000       1.030661        28.0457 
 485   0.0000       1.036623        28.2080 
 486   0.0000       1.043453        28.3938 
 487   0.0000       1.045706        28.4551 
 488   0.0000       1.046452        28.4754 
 489   0.0000       1.050804        28.5938 
 490   0.0000       1.053964        28.6798 
 491   0.0000       1.059314        28.8254 
 492   0.0000       1.062893        28.9228 
 493   0.0000       1.066566        29.0227 
 494   0.0000       1.068464        29.0744 
 495   0.0000       1.073909        29.2226 
 496   0.0000       1.078438        29.3458 
 497   0.0000       1.081538        29.4301 
 498   0.0000       1.085718        29.5439 
 499   0.0000       1.088433        29.6178 
 500   0.0000       1.090935        29.6858 
 501   0.0000       1.094944        29.7949 
 502   0.0000       1.100161        29.9369 
 503   0.0000       1.111687        30.2505 
 504   0.0000       1.112953        30.2850 
 505   0.0000       1.114740        30.3336 
 506   0.0000       1.117925        30.4203 
 507   0.0000       1.124210        30.5913 
 508   0.0000       1.130954        30.7748 
 509   0.0000       1.136197        30.9175 
 510   0.0000       1.138989        30.9935 
 511   0.0000       1.147332        31.2205 
 512   0.0000       1.149161        31.2703 
 513   0.0000       1.151910        31.3451 
 514   0.0000       1.152543        31.3623 
 515   0.0000       1.158770        31.5317 
 516   0.0000       1.163710        31.6661 
 517   0.0000       1.167748        31.7760 
 518   0.0000       1.174288        31.9540 
 519   0.0000       1.175739        31.9935 
 520   0.0000       1.183319        32.1997 
 521   0.0000       1.194207        32.4960 
 522   0.0000       1.194948        32.5162 
 523   0.0000       1.196953        32.5708 
 524   0.0000       1.201419        32.6923 
 525   0.0000       1.208173        32.8761 
 526   0.0000       1.209441        32.9106 
 527   0.0000       1.215958        33.0879 
 528   0.0000       1.217408        33.1273 
 529   0.0000       1.225888        33.3581 
 530   0.0000       1.227725        33.4081 
 531   0.0000       1.229855        33.4661 
 532   0.0000       1.240688        33.7608 
 533   0.0000       1.245804        33.9001 
 534   0.0000       1.246194        33.9107 
 535   0.0000       1.252288        34.0765 
 536   0.0000       1.258462        34.2445 
 537   0.0000       1.259342        34.2684 
 538   0.0000       1.264788        34.4166 
 539   0.0000       1.268710        34.5234 
 540   0.0000       1.271245        34.5923 
 541   0.0000       1.278333        34.7852 
 542   0.0000       1.279416        34.8147 
 543   0.0000       1.286522        35.0080 
 544   0.0000       1.287838        35.0438 
 545   0.0000       1.293845        35.2073 
 546   0.0000       1.299298        35.3557 
 547   0.0000       1.308073        35.5945 
 548   0.0000       1.311218        35.6801 
 549   0.0000       1.314417        35.7671 
 550   0.0000       1.321813        35.9684 
 551   0.0000       1.326256        36.0893 
 552   0.0000       1.329791        36.1855 
 553   0.0000       1.335722        36.3468 
 554   0.0000       1.336937        36.3799 
 555   0.0000       1.341052        36.4919 
 556   0.0000       1.345199        36.6047 
 557   0.0000       1.347319        36.6624 
 558   0.0000       1.354681        36.8627 
 559   0.0000       1.360859        37.0308 
 560   0.0000       1.361849        37.0578 
 561   0.0000       1.366657        37.1886 
 562   0.0000       1.370104        37.2824 
 563   0.0000       1.374265        37.3956 
 564   0.0000       1.375510        37.4295 
 565   0.0000       1.380210        37.5574 
 566   0.0000       1.389000        37.7966 
 567   0.0000       1.395535        37.9744 
 568   0.0000       1.404082        38.2070 
 569   0.0000       1.405745        38.2523 
 570   0.0000       1.409199        38.3463 
 571   0.0000       1.414337        38.4861 
 572   0.0000       1.416461        38.5439 
 573   0.0000       1.418297        38.5938 
 574   0.0000       1.421068        38.6692 
 575   0.0000       1.425786        38.7976 
 576   0.0000       1.435301        39.0565 
 577   0.0000       1.435686        39.0670 
 578   0.0000       1.437930        39.1281 
 579   0.0000       1.442001        39.2388 
 580   0.0000       1.450223        39.4626 
 581   0.0000       1.454422        39.5768 
 582   0.0000       1.455122        39.5959 
 583   0.0000       1.458542        39.6890 
 584   0.0000       1.465957        39.8907 
 585   0.0000       1.470230        40.0070 
 586   0.0000       1.471192        40.0332 
 587   0.0000       1.476735        40.1840 
 588   0.0000       1.481396        40.3108 
 589   0.0000       1.488737        40.5106 
 590   0.0000       1.491126        40.5756 
 591   0.0000       1.494382        40.6642 
 592   0.0000       1.499388        40.8004 
 593   0.0000       1.500865        40.8406 
 594   0.0000       1.506346        40.9898 
 595   0.0000       1.510703        41.1083 
 596   0.0000       1.511899        41.1409 
 597   0.0000       1.519099        41.3368 
 598   0.0000       1.522237        41.4222 
 599   0.0000       1.524854        41.4934 
 600   0.0000       1.526876        41.5484 
 601   0.0000       1.527988        41.5787 
 602   0.0000       1.532562        41.7031 
 603   0.0000       1.537493        41.8373 
 604   0.0000       1.540126        41.9090 
 605   0.0000       1.543152        41.9913 
 606   0.0000       1.545600        42.0579 
 607   0.0000       1.548012        42.1235 
 608   0.0000       1.552091        42.2345 
 609   0.0000       1.558719        42.4149 
 610   0.0000       1.566705        42.6322 
 611   0.0000       1.570653        42.7396 
 612   0.0000       1.570912        42.7467 
 613   0.0000       1.573409        42.8146 
 614   0.0000       1.574629        42.8478 
 615   0.0000       1.579129        42.9703 
 616   0.0000       1.583489        43.0889 
 617   0.0000       1.585043        43.1312 
 618   0.0000       1.588533        43.2262 
 619   0.0000       1.593959        43.3738 
 620   0.0000       1.602324        43.6015 
 621   0.0000       1.606466        43.7142 
 622   0.0000       1.609147        43.7871 
 623   0.0000       1.611232        43.8438 
 624   0.0000       1.614135        43.9229 
 625   0.0000       1.619143        44.0591 
 626   0.0000       1.619681        44.0737 
 627   0.0000       1.622676        44.1552 
 628   0.0000       1.626945        44.2714 
 629   0.0000       1.634981        44.4901 
 630   0.0000       1.635648        44.5082 
 631   0.0000       1.642298        44.6892 
 632   0.0000       1.649311        44.8800 
 633   0.0000       1.650914        44.9237 
 634   0.0000       1.654155        45.0118 
 635   0.0000       1.658165        45.1210 
 636   0.0000       1.661328        45.2070 
 637   0.0000       1.662451        45.2376 
 638   0.0000       1.668246        45.3953 
 639   0.0000       1.670235        45.4494 
 640   0.0000       1.671923        45.4953 
 641   0.0000       1.676776        45.6274 
 642   0.0000       1.679371        45.6980 
 643   0.0000       1.683581        45.8126 
 644   0.0000       1.688761        45.9535 
 645   0.0000       1.689931        45.9854 
 646   0.0000       1.693375        46.0791 
 647   0.0000       1.694821        46.1184 
 648   0.0000       1.704884        46.3922 
 649   0.0000       1.705377        46.4057 
 650   0.0000       1.713008        46.6133 
 651   0.0000       1.715210        46.6732 
 652   0.0000       1.718181        46.7541 
 653   0.0000       1.721927        46.8560 
 654   0.0000       1.725170        46.9443 
 655   0.0000       1.729892        47.0727 
 656   0.0000       1.733130        47.1609 
 657   0.0000       1.736714        47.2584 
 658   0.0000       1.738082        47.2956 
 659   0.0000       1.741820        47.3973 
 660   0.0000       1.745273        47.4913 
 661   0.0000       1.751562        47.6624 
 662   0.0000       1.754650        47.7465 
 663   0.0000       1.758750        47.8580 
 664   0.0000       1.767279        48.0901 
 665   0.0000       1.768472        48.1226 
 666   0.0000       1.775135        48.3039 
 667   0.0000       1.777195        48.3599 
 668   0.0000       1.779850        48.4322 
 669   0.0000       1.781833        48.4861 
 670   0.0000       1.785055        48.5738 
 671   0.0000       1.787305        48.6350 
 672   0.0000       1.792431        48.7745 
 673   0.0000       1.797473        48.9117 
 674   0.0000       1.804216        49.0952 
 675   0.0000       1.810171        49.2572 
 676   0.0000       1.811969        49.3062 
 677   0.0000       1.815019        49.3892 
 678   0.0000       1.817709        49.4624 
 679   0.0000       1.820441        49.5367 
 680   0.0000       1.823211        49.6121 
 681   0.0000       1.831349        49.8336 
 682   0.0000       1.834838        49.9285 
 683   0.0000       1.836760        49.9808 
 684   0.0000       1.839895        50.0661 
 685   0.0000       1.842121        50.1267 
 686   0.0000       1.846143        50.2361 
 687   0.0000       1.849754        50.3344 
 688   0.0000       1.855824        50.4995 
 689   0.0000       1.858424        50.5703 
 690   0.0000       1.860307        50.6215 
 691   0.0000       1.861572        50.6560 
 692   0.0000       1.866869        50.8001 
 693   0.0000       1.870902        50.9098 
 694   0.0000       1.875357        51.0311 
 695   0.0000       1.883342        51.2483 
 696   0.0000       1.887640        51.3653 
 697   0.0000       1.894325        51.5472 
 698   0.0000       1.896832        51.6154 
 699   0.0000       1.900081        51.7038 
 700   0.0000       1.904437        51.8224 
 701   0.0000       1.907999        51.9193 
 702   0.0000       1.913191        52.0606 
 703   0.0000       1.914914        52.1075 
 704   0.0000       1.918044        52.1926 
 705   0.0000       1.921676        52.2914 
 706   0.0000       1.931095        52.5478 
 707   0.0000       1.933835        52.6223 
 708   0.0000       1.939437        52.7748 
 709   0.0000       1.942122        52.8478 
 710   0.0000       1.950107        53.0651 
[...]
      dxz     :     0.005205
      dyz     :     0.007557
      dx2y2   :     0.004730
      dxy     :     0.004264
 50 H s       :     0.707741  s :     0.707741
      pz      :     0.087738  p :     0.313502
      px      :     0.135318
      py      :     0.090446
      dz2     :     0.002552  d :     0.030019
      dxz     :     0.009556
      dyz     :     0.000560
      dx2y2   :     0.008739
      dxy     :     0.008612
 51 H s       :     0.693169  s :     0.693169
      pz      :     0.130036  p :     0.333707
      px      :     0.113938
      py      :     0.089733
      dz2     :     0.010556  d :     0.030209
      dxz     :     0.007736
      dyz     :     0.007746
      dx2y2   :     0.002336
      dxy     :     0.001834
 52 H s       :     0.704700  s :     0.704700
      pz      :     0.094427  p :     0.326077
      px      :     0.090661
      py      :     0.140988
      dz2     :     0.003149  d :     0.029991
      dxz     :     0.000311
      dyz     :     0.009540
      dx2y2   :     0.007934
      dxy     :     0.009056
 53 H s       :     0.708801  s :     0.708801
      pz      :     0.093073  p :     0.310020
      px      :     0.132270
      py      :     0.084677
      dz2     :     0.003873  d :     0.029807
      dxz     :     0.008314
      dyz     :     0.001406
      dx2y2   :     0.008405
      dxy     :     0.007809
 54 H s       :     0.702185  s :     0.702185
      pz      :     0.092955  p :     0.341129
      px      :     0.096283
      py      :     0.151892
      dz2     :     0.002880  d :     0.030069
      dxz     :     0.000650
      dyz     :     0.010036
      dx2y2   :     0.007289
      dxy     :     0.009214
 55 H s       :     0.698831  s :     0.698831
      pz      :     0.133872  p :     0.356420
      px      :     0.106002
      py      :     0.116546
      dz2     :     0.009931  d :     0.030173
      dxz     :     0.007031
      dyz     :     0.007419
      dx2y2   :     0.003323
      dxy     :     0.002468
 56 H s       :     0.710880  s :     0.710880
      pz      :     0.083493  p :     0.310534
      px      :     0.136677
      py      :     0.090364
      dz2     :     0.002980  d :     0.029720
      dxz     :     0.009341
      dyz     :     0.000669
      dx2y2   :     0.007370
      dxy     :     0.009360
 57 H s       :     0.701612  s :     0.701612
      pz      :     0.137445  p :     0.356189
      px      :     0.100646
      py      :     0.118098
      dz2     :     0.008344  d :     0.030107
      dxz     :     0.005269
      dyz     :     0.007460
      dx2y2   :     0.004978
      dxy     :     0.004056
 58 H s       :     0.703735  s :     0.703735
      pz      :     0.121898  p :     0.324042
      px      :     0.106147
      py      :     0.095998
      dz2     :     0.008815  d :     0.030091
      dxz     :     0.006980
      dyz     :     0.007423
      dx2y2   :     0.003751
      dxy     :     0.003122


                      *****************************
                      * MAYER POPULATION ANALYSIS *
                      *****************************

  NA   - Mulliken gross atomic population
  ZA   - Total nuclear charge
  QA   - Mulliken gross atomic charge
  VA   - Mayer's total valence
  BVA  - Mayer's bonded valence
  FA   - Mayer's free valence

  ATOM       NA         ZA         QA         VA         BVA        FA
  0 Ru    17.1090    16.0000    -1.1090     5.2334     5.2334     0.0000
  1 P     13.3638    15.0000     1.6362     2.3293     2.3293    -0.0000
  2 P     13.6973    15.0000     1.3027     2.1358     2.1358     0.0000
  3 P     13.4927    15.0000     1.5073     1.8345     1.8345     0.0000
  4 P     13.7456    15.0000     1.2544     2.0987     2.0987    -0.0000
  5 H      0.9458     1.0000     0.0542     0.9185     0.9185    -0.0000
  6 C      6.6529     6.0000    -0.6529     4.2748     4.2748     0.0000
  7 C      5.8204     6.0000     0.1796     3.1489     3.1489     0.0000
  8 H      1.0213     1.0000    -0.0213     0.9505     0.9505     0.0000
  9 C      6.5874     6.0000    -0.5874     3.9319     3.9319    -0.0000
 10 C      6.5731     6.0000    -0.5731     3.9495     3.9495    -0.0000
 11 C      6.6320     6.0000    -0.6320     4.2405     4.2405     0.0000
 12 C      6.7735     6.0000    -0.7735     3.9953     3.9953     0.0000
 13 C      6.4663     6.0000    -0.4663     3.7791     3.7791    -0.0000
 14 C      6.4596     6.0000    -0.4596     3.7925     3.7925     0.0000
 15 C      6.6262     6.0000    -0.6262     3.8584     3.8584     0.0000
 16 C      6.5096     6.0000    -0.5096     3.7853     3.7853    -0.0000
 17 C      6.6938     6.0000    -0.6938     3.9552     3.9552    -0.0000
 18 C      6.6684     6.0000    -0.6684     3.9005     3.9005     0.0000
 19 C      6.5182     6.0000    -0.5182     3.7956     3.7956     0.0000
 20 C      6.6101     6.0000    -0.6101     3.8475     3.8475     0.0000
 21 H      0.9544     1.0000     0.0456     0.8985     0.8985    -0.0000
 22 H      0.9609     1.0000     0.0391     0.9813     0.9813     0.0000
 23 H      0.9559     1.0000     0.0441     1.0293     1.0293    -0.0000
 24 H      0.9415     1.0000     0.0585     1.0583     1.0583    -0.0000
 25 H      0.8885     1.0000     0.1115     1.0683     1.0683     0.0000
 26 H      0.9733     1.0000     0.0267     1.0842     1.0842     0.0000
 27 H      0.9484     1.0000     0.0516     1.0942     1.0942     0.0000
 28 H      0.8869     1.0000     0.1131     1.0696     1.0696    -0.0000
 29 H      0.9581     1.0000     0.0419     1.0892     1.0892     0.0000
 30 H      0.8899     1.0000     0.1101     1.0689     1.0689     0.0000
 31 H      0.9624     1.0000     0.0376     1.0761     1.0761     0.0000
 32 H      0.8992     1.0000     0.1008     1.1069     1.1069     0.0000
 33 H      0.9331     1.0000     0.0669     1.1146     1.1146     0.0000
 34 H      0.9228     1.0000     0.0772     1.0948     1.0948     0.0000
 35 H      0.9032     1.0000     0.0968     1.1030     1.1030    -0.0000
 36 H      0.9540     1.0000     0.0460     1.0744     1.0744     0.0000
 37 H      0.9174     1.0000     0.0826     1.0503     1.0503     0.0000
 38 H      0.8999     1.0000     0.1001     1.0979     1.0979     0.0000
 39 H      0.9288     1.0000     0.0712     1.0537     1.0537     0.0000
 40 H      0.9479     1.0000     0.0521     1.1210     1.1210     0.0000
 41 H      0.8602     1.0000     0.1398     1.0512     1.0512     0.0000
 42 H      0.9604     1.0000     0.0396     1.1028     1.1028     0.0000
 43 H      0.8840     1.0000     0.1160     1.0501     1.0501     0.0000
 44 H      0.8609     1.0000     0.1391     1.0279     1.0279    -0.0000
 45 H      0.9687     1.0000     0.0313     1.1226     1.1226    -0.0000
 46 H      0.9112     1.0000     0.0888     1.0656     1.0656     0.0000
 47 H      0.8954     1.0000     0.1046     1.0951     1.0951    -0.0000
 48 H      0.9404     1.0000     0.0596     1.1230     1.1230    -0.0000
 49 H      0.9163     1.0000     0.0837     1.0357     1.0357     0.0000
 50 H      0.8646     1.0000     0.1354     1.0632     1.0632     0.0000
 51 H      0.8764     1.0000     0.1236     1.0450     1.0450     0.0000
 52 H      0.9387     1.0000     0.0613     1.1468     1.1468    -0.0000
 53 H      0.8855     1.0000     0.1145     1.0928     1.0928     0.0000
 54 H      0.9237     1.0000     0.0763     1.0769     1.0769    -0.0000
 55 H      0.9544     1.0000     0.0456     1.1554     1.1554     0.0000
 56 H      0.8923     1.0000     0.1077     1.1000     1.1000     0.0000
 57 H      0.9289     1.0000     0.0711     1.0615     1.0615    -0.0000
 58 H      0.9446     1.0000     0.0554     1.1294     1.1294     0.0000

  Mayer bond orders larger than 0.100000
B(  0-Ru,  1-P ) :   0.4204 B(  0-Ru,  2-P ) :   0.4467 B(  0-Ru,  3-P ) :   0.5446 
B(  0-Ru,  4-P ) :   0.4578 B(  0-Ru,  5-H ) :   0.1071 B(  0-Ru,  6-C ) :   1.0860 
B(  0-Ru,  7-C ) :   0.7687 B(  0-Ru, 11-C ) :   0.1730 B(  0-Ru, 21-H ) :   0.1347 
B(  1-P ,  2-P ) :   0.3940 B(  1-P ,  4-P ) :   0.1666 B(  1-P ,  9-C ) :   0.5092 
B(  1-P , 10-C ) :   0.5495 B(  1-P , 11-C ) :   0.6464 B(  2-P ,  4-P ) :   0.1265 
B(  2-P ,  7-C ) :   0.1046 B(  2-P , 12-C ) :   0.6306 B(  2-P , 13-C ) :   0.2967 
B(  2-P , 14-C ) :   0.3220 B(  3-P ,  4-P ) :   0.2198 B(  3-P ,  6-C ) :   0.1868 
B(  3-P ,  7-C ) :  -0.2701 B(  3-P , 15-C ) :   0.4249 B(  3-P , 16-C ) :   0.5095 
B(  3-P , 17-C ) :   0.5135 B(  4-P ,  6-C ) :   0.1716 B(  4-P ,  7-C ) :  -0.2316 
B(  4-P , 18-C ) :   0.5310 B(  4-P , 19-C ) :   0.5567 B(  4-P , 20-C ) :   0.3938 
B(  5-H ,  6-C ) :   1.0772 B(  6-C ,  7-C ) :   0.8785 B(  6-C , 21-H ) :   1.0346 
B(  7-C ,  8-H ) :   1.0778 B(  7-C , 22-H ) :   1.0527 B(  9-C , 10-C ) :   0.1227 
B(  9-C , 11-C ) :   0.1462 B(  9-C , 23-H ) :   1.0308 B(  9-C , 24-H ) :   1.0088 
B(  9-C , 25-H ) :   1.0114 B( 10-C , 11-C ) :   0.1153 B( 10-C , 26-H ) :   1.0173 
B( 10-C , 27-H ) :   1.0236 B( 10-C , 28-H ) :   1.0401 B( 11-C , 29-H ) :   1.0303 
B( 11-C , 30-H ) :   1.0431 B( 11-C , 31-H ) :   0.9998 B( 12-C , 13-C ) :   0.1073 
B( 12-C , 14-C ) :   0.1145 B( 12-C , 32-H ) :   1.0592 B( 12-C , 33-H ) :   1.0449 
B( 12-C , 34-H ) :   1.0598 B( 13-C , 14-C ) :   0.1732 B( 13-C , 35-H ) :   1.0458 
B( 13-C , 36-H ) :   1.0182 B( 13-C , 37-H ) :   0.9932 B( 14-C , 38-H ) :   1.0306 
B( 14-C , 39-H ) :   0.9842 B( 14-C , 40-H ) :   1.0201 B( 15-C , 16-C ) :   0.1294 
B( 15-C , 17-C ) :   0.1671 B( 15-C , 41-H ) :   1.0047 B( 15-C , 42-H ) :   1.0447 
B( 15-C , 43-H ) :   0.9981 B( 16-C , 44-H ) :   0.9970 B( 16-C , 45-H ) :   1.0548 
B( 16-C , 46-H ) :   0.9762 B( 17-C , 47-H ) :   1.0576 B( 17-C , 48-H ) :   1.0105 
B( 17-C , 49-H ) :   1.0135 B( 18-C , 20-C ) :   0.1318 B( 18-C , 50-H ) :   0.9978 
B( 18-C , 51-H ) :   1.0123 B( 18-C , 52-H ) :   1.0426 B( 19-C , 53-H ) :   1.0168 
B( 19-C , 54-H ) :   0.9958 B( 19-C , 55-H ) :   1.0382 B( 20-C , 56-H ) :   1.0408 
B( 20-C , 57-H ) :   1.0106 B( 20-C , 58-H ) :   1.0263 

-------
TIMINGS
-------

Total SCF time: 0 days 0 hours 5 min 29 sec 

Total time                  ....     329.559 sec
Sum of individual times     ....     326.892 sec  ( 99.2%)

Fock matrix formation       ....     306.674 sec  ( 93.1%)
  XC integration            ....      22.116 sec  (  7.2% of F)
    Basis function eval.    ....       3.881 sec  ( 17.6% of XC)
    Density eval.           ....       9.571 sec  ( 43.3% of XC)
    XC-Functional eval.     ....       0.122 sec  (  0.6% of XC)
    XC-Potential eval.      ....       6.743 sec  ( 30.5% of XC)
Diagonalization             ....       5.428 sec  (  1.6%)
Density matrix formation    ....       0.315 sec  (  0.1%)
Population analysis         ....       0.639 sec  (  0.2%)
Initial guess               ....       4.676 sec  (  1.4%)
Orbital Transformation      ....       0.000 sec  (  0.0%)
Orbital Orthonormalization  ....       0.000 sec  (  0.0%)
DIIS solution               ....       6.839 sec  (  2.1%)
Grid generation             ....       2.323 sec  (  0.7%)


           ************************************************************
           *        Program running with 24 parallel MPI-processes    *
           *              working on a common directory               *
           ************************************************************

------------------------------------------------------------------------------
                                ORCA  MP2 
------------------------------------------------------------------------------

Freezing NCore=68 chemical core electrons

-------------
RI-MP2 ENERGY
-------------
Dimension of the basis                    ... 1446
Memory devoted to MP2                     ... 5000 MB   
Data format for buffers                   ... DOUBLE
Compression type for matrix containers    ... UNCOMPRESSED
Scaling for aa/bb pairs                   ...   4.000e-01
Scaling for ab pairs                      ...   4.700e-01
Overall scaling of the MP2 energy         ...   1.000e+00
Calculating two index integrals           ... done (    0.089 sec)
Cholesky decomposition of V**-1           ... done (    1.295 sec)

-----------------
RI-TRANSFORMATION (AUX index driven)
-----------------

Dimension of the orbital-basis         ... 1446
Dimension of the aux-basis             ... 3580
Transformation of internal/external MOs...   34-  99 to  100-1445
Number Format for Storage              ... Double (8 Byte)
Integral mode                          ... Direct

First Phase: integral generation and transformation of MO indices
  Aux angular momentum 0               ... done (    0.964 sec)
  Aux angular momentum 1               ... done (    1.998 sec)
  Aux angular momentum 2               ... done (    2.539 sec)
  Aux angular momentum 3               ... done (    2.064 sec)
  Aux angular momentum 4               ... done (    0.792 sec)
  Aux angular momentum 5               ... done (    0.506 sec)
  Aux angular momentum 6               ... done (    0.645 sec)
Closing buffer VIA ( 2.37 GB; CompressionRatio= 1.00)
  Phase 1 completed in     9.728 sec
Second Phase: sorting and transformation of aux index

IA-Transformation
Memory available                       ... 4734 MB 
Max. # MO pairs treated in a batch     ... 3    
# of internal orbitals                 ... 66
# batches for internal orbitals        ... 1
Closing buffer IAV ( 0.11 GB; CompressionRatio= 1.00)
(ia|v) transformation done in     2.568 sec

  Phase 2 completed in     8.139 sec
RI-Integral transformation completed in    17.936 sec
Opening buffers                              ... done

Starting loop over batches of integrals:

Operator 0  - window                       ... ( 34- 99)x(100-1445)
Operator 0  - Memory available             ...  5000 MB
Operator 0  - Memory needed per MO         ...  36.8 MB
Operator 0  - Number of orbitals per batch ... 3
Operator 0  - Number of batches            ... 1

OPERATOR  0   PASS   0:  MOs    34 ...   36 +   37 ...   39 +   40 ...   42 +   43 ...   45
                            +   46 ...   48 +   49 ...   51 +   52 ...   54 +   55 ...   57
                            +   58 ...   60 +   61 ...   63 +   64 ...   66 +   67 ...   69
                            +   70 ...   72 +   73 ...   75 +   76 ...   78 +   79 ...   81
                            +   82 ...   84 +   85 ...   87 +   88 ...   90 +   91 ...   93
                            +   94 ...   96 +   97 ...   99
  Reading integrals       ... ok
  Internal MO  36
Time spent in pair loops =     1.813 sec
Deleting buffer (Ka|jb)[aa] ...done

-----------------------------------------------
 RI-MP2 CORRELATION ENERGY:     -2.070438456 Eh
-----------------------------------------------


-------
TIMINGS
-------

Total time                :   63.467 sec
Integral trafo            :   17.977 sec ( 28.3%)
I/O of integrals          :    0.150 sec (  0.2%)
K(i,j) Operators          :    1.383 sec (  2.2%)
T(i,j) pair energies      :    0.162 sec (  0.3%)
V-calculation             :    0.089 sec (  0.1%)
V**(-1/2)                 :    1.295 sec (  2.0%)
Gamma(ia|P)               :    0.000 sec (  0.0%)
Gamma-Trafo               :    0.000 sec (  0.0%)
D(virtual)                :    0.000 sec (  0.0%)
D(internal)               :    0.000 sec (  0.0%)
W(virtual)                :    0.000 sec (  0.0%)
W(internal)               :    0.000 sec (  0.0%)
L(virtual)                :    0.000 sec (  0.0%)
L(internal)               :    0.000 sec (  0.0%)
G(D)                      :    0.000 sec (  0.0%)
G(Z)                      :    0.000 sec (  0.0%)
Z-Vector Solution         :    0.000 sec (  0.0%)
Z-Vector Solution         :    0.000 sec (  0.0%)
3-Index Derivative 
+ Separable RIJ part      :    0.000 sec (  0.0%)
2-Index Derivative 
+ Separable RIJ part      :    0.000 sec (  0.0%)
Separable Gradient (X)    :    0.000 sec (  0.0%)


---------------------------------------
MP2 TOTAL ENERGY:    -2016.588640874 Eh
---------------------------------------


-------------------------------------------------------------------------------
                          DFT DISPERSION CORRECTION                            
                                                                               
                              DFTD3 V3.1  Rev 1                                
                          USING Becke-Johnson damping                          
-------------------------------------------------------------------------------
The DSD-BLYP/2013 functional is recognized
Active option DFTDOPT                   ...         4   

molecular C6(AA) [au] = 37647.970449 


            DFT-D V3
 parameters
 s6 scaling factor         :     0.5700 
 a1 scaling factor         :     0.0000 
 s8 scaling factor         :     0.0000 
 a2 scaling factor         :     5.4000 
 ad hoc parameters k1-k3   :    16.0000     1.3333    -4.0000 

 Edisp/kcal,au: -59.870851757294  -0.095410265256 
 E6   /kcal   : -59.870851757 
 E8   /kcal   :  -0.000000000 
 % E8         :   0.000000000 

-------------------------   ----------------
Dispersion correction           -0.095410265
-------------------------   ----------------


-------------------------   --------------------
FINAL SINGLE POINT ENERGY     -2016.684051139443
-------------------------   --------------------


                            ***************************************
                            *     ORCA property calculations      *
                            ***************************************


  WARNING: The energy has been calculated at the MP2 level but the densities
           used in the property calculations are still SCF densities
           MP2 response densities have not been calculated 
           use %mp2 Density relaxed end
           or  %mp2 Density unrelaxed end

                                    ---------------------
                                    Active property flags
                                    ---------------------
   (+) Dipole Moment


------------------------------------------------------------------------------
                       ORCA ELECTRIC PROPERTIES CALCULATION
------------------------------------------------------------------------------

Dipole Moment Calculation                       ... on
Quadrupole Moment Calculation                   ... off
Polarizability Calculation                      ... off
GBWName                                         ... MOR16_ed33.gbw
Electron density file                           ... MOR16_ed33.scfp
The origin for moment calculation is the CENTER OF MASS  = (-0.003158, -0.007776 -0.038309)

-------------
DIPOLE MOMENT
-------------
                                X             Y             Z
Electronic contribution:     -1.78935      -5.09917     -26.64353
Nuclear contribution   :      1.82563       5.30534      27.72313
                        -----------------------------------------
Total Dipole Moment    :      0.03628       0.20617       1.07961
                        -----------------------------------------
Magnitude (a.u.)       :      1.09971
Magnitude (Debye)      :      2.79525



--------------------
Rotational spectrum 
--------------------
 
Rotational constants in cm-1:     0.009351     0.007693     0.006898 
Rotational constants in MHz :   280.325632   230.636339   206.809498 

 Dipole components along the rotational axes: 
x,y,z [a.u.] :     0.036564    -0.206156     1.079598 
x,y,z [Debye]:     0.092939    -0.524008     2.744120 

 

Timings for individual modules:

Sum of individual times         ...      404.458 sec (=   6.741 min)
GTO integral calculation        ...        9.938 sec (=   0.166 min)   2.5 %
SCF iterations                  ...      330.102 sec (=   5.502 min)  81.6 %
MP2 module                      ...       64.417 sec (=   1.074 min)  15.9 %
                             ****ORCA TERMINATED NORMALLY****
TOTAL RUN TIME: 0 days 0 hours 6 minutes 45 seconds 325 msec
