
                                 *****************
                                 * O   R   C   A *
                                 *****************

           --- An Ab Initio, DFT and Semiempirical electronic structure package ---

                  #######################################################
                  #                        -***-                        #
                  #          Department of theory and spectroscopy      #
                  #               Directorship: Frank Neese             #
                  #        Max Planck Institute fuer Kohlenforschung    #
                  #                Kaiser Wilhelm Platz 1               #
                  #                 D-45470 Muelheim/Ruhr               #
                  #                      Germany                        #
                  #                                                     #
                  #                  All rights reserved                #
                  #                        -***-                        #
                  #######################################################


                         Program Version 4.2.0 -  RELEASE  -


 With contributions from (in alphabetic order):
   Daniel Aravena         : Magnetic Suceptibility
   Michael Atanasov       : Ab Initio Ligand Field Theory (pilot matlab implementation)
   Alexander A. Auer      : GIAO ZORA, VPT2
   Ute Becker             : Parallelization
   Giovanni Bistoni       : ED, misc. LED, open-shell LED, HFLED
   Martin Brehm           : Molecular dynamics
   Dmytro Bykov           : SCF Hessian
   Vijay G. Chilkuri      : MRCI spin determinant printing, contributions to CSF-ICE
   Dipayan Datta          : RHF DLPNO-CCSD density
   Achintya Kumar Dutta   : EOM-CC, STEOM-CC
   Dmitry Ganyushin       : Spin-Orbit,Spin-Spin,Magnetic field MRCI
   Miquel Garcia          : C-PCM Hessian, Gaussian charge scheme
   Yang Guo               : DLPNO-NEVPT2, CIM, IAO-localization
   Andreas Hansen         : Spin unrestricted coupled pair/coupled cluster methods
   Benjamin Helmich-Paris : CASSCF linear response (MC-RPA)
   Lee Huntington         : MR-EOM, pCC
   Robert Izsak           : Overlap fitted RIJCOSX, COSX-SCS-MP3, EOM
   Christian Kollmar      : KDIIS, OOCD, Brueckner-CCSD(T), CCSD density
   Simone Kossmann        : Meta GGA functionals, TD-DFT gradient, OOMP2, MP2 Hessian
   Martin Krupicka        : AUTO-CI
   Lucas Lang             : DCDCAS
   Dagmar Lenk            : GEPOL surface, SMD
   Dimitrios Liakos       : Extrapolation schemes; Compound Job, initial MDCI parallelization
   Dimitrios Manganas     : Further ROCIS development; embedding schemes
   Dimitrios Pantazis     : SARC Basis sets
   Taras Petrenko         : DFT Hessian,TD-DFT gradient, ASA, ECA, R-Raman, ABS, FL, XAS/XES, NRVS
   Peter Pinski           : DLPNO-MP2, DLPNO-MP2 Gradient
   Christoph Reimann      : Effective Core Potentials
   Marius Retegan         : Local ZFS, SOC
   Christoph Riplinger    : Optimizer, TS searches, QM/MM, DLPNO-CCSD(T), (RO)-DLPNO pert. Triples
   Tobias Risthaus        : Range-separated hybrids, TD-DFT gradient, RPA, STAB
   Michael Roemelt        : Original ROCIS implementation
   Masaaki Saitow         : Open-shell DLPNO-CCSD energy and density
   Barbara Sandhoefer     : DKH picture change effects
   Avijit Sen             : IP-ROCIS
   Kantharuban Sivalingam : CASSCF convergence, NEVPT2, FIC-MRCI
   Bernardo de Souza      : ESD, SOC TD-DFT
   Georgi Stoychev        : AutoAux, RI-MP2 NMR
   Willem Van den Heuvel  : Paramagnetic NMR
   Boris Wezisla          : Elementary symmetry handling
   Frank Wennmohs         : Technical directorship


 We gratefully acknowledge several colleagues who have allowed us to
 interface, adapt or use parts of their codes:
   Stefan Grimme, W. Hujo, H. Kruse,             : VdW corrections, initial TS optimization,
                  C. Bannwarth                     DFT functionals, gCP, sTDA/sTD-DF
   Ed Valeev, F. Pavosevic, A. Kumar             : LibInt (2-el integral package), F12 methods
   Garnet Chan, S. Sharma, J. Yang, R. Olivares  : DMRG
   Ulf Ekstrom                                   : XCFun DFT Library
   Mihaly Kallay                                 : mrcc  (arbitrary order and MRCC methods)
   Andreas Klamt, Michael Diedenhofen            : otool_cosmo (COSMO solvation model)
   Jiri Pittner, Ondrej Demel                    : Mk-CCSD
   Frank Weinhold                                : gennbo (NPA and NBO analysis)
   Christopher J. Cramer and Donald G. Truhlar   : smd solvation model
   Lars Goerigk                                  : TD-DFT with DH, B97 family of functionals
   V. Asgeirsson, H. Jonsson                     : NEB implementation
   FAccTs GmbH                                   : IRC, NEB, NEB-TS, Multilevel, MM, QM/MM, CI optimization
   S Lehtola, MJT Oliveira, MAL Marques          : LibXC Library


 Your calculation uses the libint2 library for the computation of 2-el integrals
 For citations please refer to: http://libint.valeyev.net

 Your ORCA version has been built with support for libXC version: 4.2.3
 For citations please refer to: https://tddft.org/programs/libxc/

 This ORCA versions uses:
   CBLAS   interface :  Fast vector & matrix operations
   LAPACKE interface :  Fast linear algebra routines
   SCALAPACK package :  Parallel linear algebra routines


Your calculation utilizes the atom-pairwise dispersion correction
with the Becke-Johnson damping scheme (D3BJ)
Cite in your paper:
S.Grimme, S.Ehrlich, L.Goerigk, J Comput Chem, (2011), 32, 1456–1465 
S.Grimme, J.Antony, S.Ehrlich and H.Krieg, J.Chem.Phys., 132, (2010), 154104 
   

----- Orbital basis set information -----
Your calculation utilizes the basis: def2-TZVPPD
   F. Weigend and R. Ahlrichs, Phys. Chem. Chem. Phys. 7, 3297 (2005).
   D. Rappoport and F. Furche, J. Chem. Phys. 133 134105 (2010).

----- AuxC basis set information -----
Your calculation utilizes the auxiliary basis: def2-TZVPPD/C
   A. Hellweg, C. Hattig, S. Hofener and W. Klopper, Theor. Chem. Acc. 117, 587 (2007).

----- AuxJK basis set information -----
Your calculation utilizes the auxiliary basis: def2/JK
   H-Ba, Hf-Rn: F. Weigend, J. Comput. Chem. 29, 167 (2008).

================================================================================
                                        WARNINGS
                       Please study these warnings very carefully!
================================================================================


WARNING: No MP2 level density has been requested!
         To caclulate MP2 level properties use
         %mp2 Density relaxed end
         or
         %mp2 Density unrelaxed end
         Otherwise for double-hybrid DFT only the energy is correct!

WARNING: There are different parametrizations of Gershom Martin's DSD-DFs
         for use with and without D3(BJ)!
         You are using the D3(BJ) parametrized version,
         consistent with the 2013 article (S. Kozuch and J. M. L. Martin, JCC 2013, 34, 2327)

WARNING: The frozen-core approximation is turned on by default for 
         the MP2 part of double-hybrid DFT.

INFO   : the flag for use of LIBINT has been found!

================================================================================
                                       INPUT FILE
================================================================================
NAME = MOR21_mecn.in
|  1> #
|  2> # MOR21_mecn ri-DSD-BLYP/2013-D3BJ/Def2-TZVPPD
|  3> #
|  4> ! rijk ri-dsd-blyp/2013 d3bj def2-tzvppd def2/jk def2-tzvppd/c grid4 nofinalgrid
|  5> 
|  6> *xyz 0 1
|  7> N        1.434594    0.083513   -0.053227 
|  8> C        0.278345    0.016206   -0.010325 
|  9> C       -1.176577   -0.068494    0.043652 
| 10> H       -1.556498   -0.572512   -0.849824 
| 11> H       -1.609231    0.934929    0.094890 
| 12> H       -1.487035   -0.633283    0.927565 
| 13> *
| 14> 
| 15> %maxcore 5000
| 16> 
| 17> %pal
| 18> nprocs = 24
| 19> end
| 20> 
| 21> 
| 22>                          ****END OF INPUT****
================================================================================

                       ****************************
                       * Single Point Calculation *
                       ****************************

---------------------------------
CARTESIAN COORDINATES (ANGSTROEM)
---------------------------------
  N      1.434594    0.083513   -0.053227
  C      0.278345    0.016206   -0.010325
  C     -1.176577   -0.068494    0.043652
  H     -1.556498   -0.572512   -0.849824
  H     -1.609231    0.934929    0.094890
  H     -1.487035   -0.633283    0.927565

----------------------------
CARTESIAN COORDINATES (A.U.)
----------------------------
  NO LB      ZA    FRAG     MASS         X           Y           Z
   0 N     7.0000    0    14.007    2.710990    0.157817   -0.100584
   1 C     6.0000    0    12.011    0.525996    0.030625   -0.019511
   2 C     6.0000    0    12.011   -2.223408   -0.129435    0.082490
   3 H     1.0000    0     1.008   -2.941355   -1.081891   -1.605935
   4 H     1.0000    0     1.008   -3.041006    1.766760    0.179316
   5 H     1.0000    0     1.008   -2.810089   -1.196731    1.752844

--------------------------------
INTERNAL COORDINATES (ANGSTROEM)
--------------------------------
 N      0   0   0     0.000000000000     0.00000000     0.00000000
 C      1   0   0     1.159000674656     0.00000000     0.00000000
 C      2   1   0     1.458384596947   179.99961392     0.00000000
 H      3   2   1     1.093925716464   110.06008476   344.27382145
 H      3   2   1     1.093925286886   110.06143026   224.27296768
 H      3   2   1     1.093925489169   110.06093723   104.27391271

---------------------------
INTERNAL COORDINATES (A.U.)
---------------------------
 N      0   0   0     0.000000000000     0.00000000     0.00000000
 C      1   0   0     2.190193864131     0.00000000     0.00000000
 C      2   1   0     2.755947486159   179.99961392     0.00000000
 H      3   2   1     2.067220014970   110.06008476   344.27382145
 H      3   2   1     2.067219203186   110.06143026   224.27296768
 H      3   2   1     2.067219585446   110.06093723   104.27391271

---------------------
BASIS SET INFORMATION
---------------------
There are 3 groups of distinct atoms

 Group   1 Type N   : 12s6p3d1f contracted to 6s3p3d1f pattern {621111/411/111/1}
 Group   2 Type C   : 12s6p3d1f contracted to 6s3p3d1f pattern {621111/411/111/1}
 Group   3 Type H   : 5s3p1d contracted to 3s3p1d pattern {311/111/1}

Atom   0N    basis set group =>   1
Atom   1C    basis set group =>   2
Atom   2C    basis set group =>   2
Atom   3H    basis set group =>   3
Atom   4H    basis set group =>   3
Atom   5H    basis set group =>   3
---------------------------------
AUXILIARY/C BASIS SET INFORMATION
---------------------------------
There are 3 groups of distinct atoms

 Group   1 Type N   : 9s7p6d4f1g contracted to 9s7p5d4f1g pattern {111111111/1111111/21111/1111/1}
 Group   2 Type C   : 9s7p6d4f1g contracted to 9s7p5d4f1g pattern {111111111/1111111/21111/1111/1}
 Group   3 Type H   : 5s4p3d1f contracted to 5s4p3d1f pattern {11111/1111/111/1}

Atom   0N    basis set group =>   1
Atom   1C    basis set group =>   2
Atom   2C    basis set group =>   2
Atom   3H    basis set group =>   3
Atom   4H    basis set group =>   3
Atom   5H    basis set group =>   3
----------------------------------
AUXILIARY/JK BASIS SET INFORMATION
----------------------------------
There are 3 groups of distinct atoms

 Group   1 Type N   : 14s10p6d2f1g contracted to 10s8p4d2f1g pattern {5111111111/31111111/3111/11/1}
 Group   2 Type C   : 14s10p6d2f1g contracted to 10s8p5d1f1g pattern {5111111111/31111111/21111/2/1}
 Group   3 Type H   : 4s2p2d contracted to 2s2p2d pattern {31/11/11}

Atom   0N    basis set group =>   1
Atom   1C    basis set group =>   2
Atom   2C    basis set group =>   2
Atom   3H    basis set group =>   3
Atom   4H    basis set group =>   3
Atom   5H    basis set group =>   3


           ************************************************************
           *        Program running with 24 parallel MPI-processes    *
           *              working on a common directory               *
           ************************************************************
------------------------------------------------------------------------------
                           ORCA GTO INTEGRAL CALCULATION
                           -- RI-GTO INTEGRALS CHOSEN --
------------------------------------------------------------------------------

                         BASIS SET STATISTICS AND STARTUP INFO

Gaussian basis set:
 # of primitive gaussian shells          ...   93
 # of primitive gaussian functions       ...  213
 # of contracted shells                  ...   60
 # of contracted basis functions         ...  162
 Highest angular momentum                ...    3
 Maximum contraction depth               ...    6
Auxiliary gaussian basis set:
 # of primitive gaussian shells          ...  123
 # of primitive gaussian functions       ...  351
 # of contracted shells                  ...   93
 # of contracted aux-basis functions     ...  281
 Highest angular momentum                ...    4
 Maximum contraction depth               ...    5
Ratio of auxiliary to basis functions    ...  1.73
Integral package used                  ... LIBINT
 One Electron integrals                  ... done
 Ordering auxiliary basis shells         ... done
 Integral threshhold             Thresh  ...  1.000e-10
 Primitive cut-off               TCut    ...  1.000e-11
 Pre-screening matrix                    ... done
 Shell pair data                         ... 
 Ordering of the shell pairs             ... done (   0.000 sec) 1808 of 1830 pairs
 Determination of significant pairs      ... done (   0.000 sec)
 Creation of shell pair data             ... done (   0.000 sec)
 Storage of shell pair data              ... done (   0.031 sec)
 Shell pair data done in (   0.031 sec)
 Computing two index integrals           ... done
 Cholesky decomposition of the V-matrix  ... done


Timings:
 Total evaluation time                   ...   0.191 sec (  0.003 min)
 One electron matrix time                ...   0.031 sec (  0.001 min) = 16.2%
 Schwartz matrix evaluation time         ...   0.104 sec (  0.002 min) = 54.7%
 Two index repulsion integral time       ...   0.001 sec (  0.000 min) =  0.7%
 Cholesky decomposition of V             ...   0.002 sec (  0.000 min) =  0.8%
 Three index repulsion integral time     ...   0.000 sec (  0.000 min) =  0.0%



           ************************************************************
           *        Program running with 24 parallel MPI-processes    *
           *              working on a common directory               *
           ************************************************************
-------------------------------------------------------------------------------
                                 ORCA SCF
-------------------------------------------------------------------------------

------------
SCF SETTINGS
------------
Hamiltonian:
 Density Functional     Method          .... DFT(GTOs)
 Exchange Functional    Exchange        .... B88
   X-Alpha parameter    XAlpha          ....  0.666667
   Becke's b parameter  XBeta           ....  0.004200
 Correlation Functional Correlation     .... LYP
 LDA part of GGA corr.  LDAOpt          .... VWN-5
 Gradients option       PostSCFGGA      .... off
 Hybrid DFT is turned on
   Fraction HF Exchange ScalHFX         ....  0.710000
   Scaling of DF-GGA-X  ScalDFX         ....  0.290000
   Scaling of DF-GGA-C  ScalDFC         ....  0.540000
   Scaling of DF-LDA-C  ScalLDAC        ....  0.540000
   Perturbative correction              ....  1.000000
   Density functional embedding theory  .... OFF
 RI-approximation to the Coulomb term is turned on
   Number of auxiliary basis functions  .... 281
   RI-JK (J+K treated both via RI)      .... on


General Settings:
 Integral files         IntName         .... MOR21_mecn
 Hartree-Fock type      HFTyp           .... RHF
 Total Charge           Charge          ....    0
 Multiplicity           Mult            ....    1
 Number of Electrons    NEL             ....   22
 Basis Dimension        Dim             ....  162
 Nuclear Repulsion      ENuc            ....     58.3736252895 Eh

Convergence Acceleration:
 DIIS                   CNVDIIS         .... on
   Start iteration      DIISMaxIt       ....    12
   Startup error        DIISStart       ....  0.200000
   # of expansion vecs  DIISMaxEq       ....     5
   Bias factor          DIISBfac        ....   1.050
   Max. coefficient     DIISMaxC        ....  10.000
 Newton-Raphson         CNVNR           .... off
 SOSCF                  CNVSOSCF        .... on
   Start iteration      SOSCFMaxIt      ....   150
   Startup grad/error   SOSCFStart      ....  0.003300
 Level Shifting         CNVShift        .... on
   Level shift para.    LevelShift      ....    0.2500
   Turn off err/grad.   ShiftErr        ....    0.0010
 Zerner damping         CNVZerner       .... off
 Static damping         CNVDamp         .... on
   Fraction old density DampFac         ....    0.7000
   Max. Damping (<1)    DampMax         ....    0.9800
   Min. Damping (>=0)   DampMin         ....    0.0000
   Turn off err/grad.   DampErr         ....    0.1000
 Fernandez-Rico         CNVRico         .... off

SCF Procedure:
 Maximum # iterations   MaxIter         ....   125
 SCF integral mode      SCFMode         .... Direct
   Integral package                     .... LIBINT
 Reset frequency        DirectResetFreq ....    20
 Integral Threshold     Thresh          ....  1.000e-10 Eh
 Primitive CutOff       TCut            ....  1.000e-11 Eh

Convergence Tolerance:
 Convergence Check Mode ConvCheckMode   .... Total+1el-Energy
 Convergence forced     ConvForced      .... 0
 Energy Change          TolE            ....  1.000e-06 Eh
 1-El. energy change                    ....  1.000e-03 Eh
 Orbital Gradient       TolG            ....  5.000e-05
 Orbital Rotation angle TolX            ....  5.000e-05
 DIIS Error             TolErr          ....  1.000e-06


Diagonalization of the overlap matrix:
Smallest eigenvalue                        ... 1.197e-05
Time for diagonalization                   ...    0.005 sec
Threshold for overlap eigenvalues          ... 1.000e-08
Number of eigenvalues below threshold      ... 0
Time for construction of square roots      ...    0.003 sec
Total time needed                          ...    0.008 sec

-------------------
DFT GRID GENERATION
-------------------

General Integration Accuracy     IntAcc      ...  4.670
Radial Grid Type                 RadialGrid  ... Gauss-Chebyshev
Angular Grid (max. acc.)         AngularGrid ... Lebedev-302
Angular grid pruning method      GridPruning ... 3 (G Style)
Weight generation scheme         WeightScheme... Becke
Basis function cutoff            BFCut       ...    1.0000e-10
Integration weight cutoff        WCut        ...    1.0000e-14
Grids for H and He will be reduced by one unit

# of grid points (after initial pruning)     ...  28818 (   0.0 sec)
# of grid points (after weights+screening)   ...  27867 (   0.0 sec)
nearest neighbour list constructed           ...    0.0 sec
Grid point re-assignment to atoms done       ...    0.0 sec
Grid point division into batches done        ...    0.1 sec
Reduced shell lists constructed in    0.1 sec

Total number of grid points                  ...    27867
Total number of batches                      ...      439
Average number of points per batch           ...       63
Average number of grid points per atom       ...     4644
Average number of shells per batch           ...    14.10 (23.50%)
Average number of basis functions per batch  ...    34.50 (21.30%)
Average number of large shells per batch     ...     9.20 (65.25%)
Average number of large basis fcns per batch ...    23.40 (67.83%)
Average number of aux-shells per batch       ...    14.10 (15.16%)
Average number of aux functions per batch    ...    34.50 (12.28%)
Maximum spatial batch extension              ...  15.83, 19.48, 16.05 au
Average spatial batch extension              ...   0.49,  0.59,  0.55 au

Time for grid setup =    0.182 sec

------------------------------
INITIAL GUESS: MODEL POTENTIAL
------------------------------
Loading Hartree-Fock densities                     ... done
Calculating cut-offs                               ... done
Setting up the integral package                    ... done
Initializing the effective Hamiltonian             ... done
Starting the Coulomb interaction                   ... done (   0.0 sec)
Reading the grid                                   ... done
Mapping shells                                     ... done
Starting the XC term evaluation                    ... done (   0.0 sec)
  promolecular density results
     # of electrons  =     21.998529606
     EX              =    -17.661596279
     EC              =     -0.074484716
     EX+EC           =    -17.736080995
Transforming the Hamiltonian                       ... done (   0.0 sec)
Diagonalizing the Hamiltonian                      ... done (   0.0 sec)
Back transforming the eigenvectors                 ... done (   0.0 sec)
Now organizing SCF variables                       ... done
                      ------------------
                      INITIAL GUESS DONE (   0.3 sec)
                      ------------------
--------------
SCF ITERATIONS
--------------
ITER       Energy         Delta-E        Max-DP      RMS-DP      [F,P]     Damp
  0   -132.2397436811   0.000000000000 0.04935326  0.00112464  0.2949970 0.7000
  1   -132.1795366946   0.060206986487 0.06431228  0.00119638  0.2572927 0.7000
                               ***Turning on DIIS***
  2   -132.2074080001  -0.027871305489 0.03820608  0.00077376  0.1254029 0.7000
  3   -132.2658970579  -0.058489057834 0.06613704  0.00154396  0.0415062 0.0000
  4   -132.3706827309  -0.104785672946 0.02610495  0.00052377  0.0501447 0.0000
  5   -132.3768170553  -0.006134324389 0.01471475  0.00029856  0.0368981 0.0000
  6   -132.3789021890  -0.002085133751 0.00796235  0.00016372  0.0164238 0.0000
  7   -132.3793978185  -0.000495629469 0.00220245  0.00006801  0.0056339 0.0000
                      *** Initiating the SOSCF procedure ***
                           *** Shutting down DIIS ***
                      *** Re-Reading the Fockian *** 
                      *** Removing any level shift *** 
ITER      Energy       Delta-E        Grad      Rot      Max-DP    RMS-DP
  8   -132.37946268  -0.0000648583  0.000469  0.000469  0.000655  0.000023
  9   -132.37946806  -0.0000053861  0.000235  0.000450  0.000519  0.000015
                 **** Energy Check signals convergence ****
              ***Rediagonalizing the Fockian in SOSCF/NRSCF***

               *****************************************************
               *                     SUCCESS                       *
               *           SCF CONVERGED AFTER  10 CYCLES          *
               *****************************************************


----------------
TOTAL SCF ENERGY
----------------

Total Energy       :         -132.37946850 Eh           -3602.22847 eV

Components:
Nuclear Repulsion  :           58.37362529 Eh            1588.42710 eV
Electronic Energy  :         -190.75309379 Eh           -5190.65557 eV
One Electron Energy:         -293.21971923 Eh           -7978.91420 eV
Two Electron Energy:          102.46662544 Eh            2788.25863 eV

Virial components:
Potential Energy   :         -264.26560706 Eh           -7191.03275 eV
Kinetic Energy     :          131.88613856 Eh            3588.80428 eV
Virial Ratio       :            2.00374057


DFT components:
N(Alpha)           :       10.999997145351 electrons
N(Beta)            :       10.999997145351 electrons
N(Total)           :       21.999994290703 electrons
E(X)               :       -5.226701142396 Eh       
E(C)               :       -0.389866743457 Eh       
E(XC)              :       -5.616567885853 Eh       
DFET-embed. en.    :        0.000000000000 Eh       

---------------
SCF CONVERGENCE
---------------

  Last Energy change         ...   -4.3645e-07  Tolerance :   1.0000e-06
  Last MAX-Density change    ...    1.9121e-04  Tolerance :   1.0000e-05
  Last RMS-Density change    ...    6.2656e-06  Tolerance :   1.0000e-06
  Last Orbital Gradient      ...    2.1222e-04  Tolerance :   5.0000e-05
  Last Orbital Rotation      ...    8.8117e-05  Tolerance :   5.0000e-05

             **** THE GBW FILE WAS UPDATED (MOR21_mecn.gbw) ****
             **** DENSITY FILE WAS UPDATED (MOR21_mecn.scfp) ****
             **** ENERGY FILE WAS UPDATED (MOR21_mecn.en.tmp) ****
             **** THE GBW FILE WAS UPDATED (MOR21_mecn.gbw) ****
             **** DENSITY FILE WAS UPDATED (MOR21_mecn.scfp) ****
----------------
ORBITAL ENERGIES
----------------

  NO   OCC          E(Eh)            E(eV) 
   0   2.0000     -15.124796      -411.5666 
   1   2.0000     -10.910277      -296.8837 
   2   2.0000     -10.902793      -296.6801 
   3   2.0000      -1.110681       -30.2232 
   4   2.0000      -0.951148       -25.8821 
   5   2.0000      -0.638834       -17.3836 
   6   2.0000      -0.575839       -15.6694 
   7   2.0000      -0.575835       -15.6693 
   8   2.0000      -0.491834       -13.3835 
   9   2.0000      -0.419467       -11.4143 
  10   2.0000      -0.419466       -11.4143 
  11   0.0000       0.033281         0.9056 
  12   0.0000       0.078421         2.1339 
  13   0.0000       0.101758         2.7690 
  14   0.0000       0.101759         2.7690 
  15   0.0000       0.134451         3.6586 
  16   0.0000       0.134451         3.6586 
  17   0.0000       0.148146         4.0312 
  18   0.0000       0.158868         4.3230 
  19   0.0000       0.158871         4.3231 
  20   0.0000       0.199262         5.4222 
  21   0.0000       0.200750         5.4627 
  22   0.0000       0.200757         5.4629 
  23   0.0000       0.235083         6.3969 
  24   0.0000       0.277347         7.5470 
  25   0.0000       0.282364         7.6835 
  26   0.0000       0.282379         7.6839 
  27   0.0000       0.309811         8.4304 
  28   0.0000       0.309817         8.4306 
  29   0.0000       0.314270         8.5517 
  30   0.0000       0.319447         8.6926 
  31   0.0000       0.342808         9.3283 
  32   0.0000       0.344788         9.3821 
  33   0.0000       0.344792         9.3823 
  34   0.0000       0.376616        10.2482 
  35   0.0000       0.421999        11.4832 
  36   0.0000       0.422005        11.4833 
  37   0.0000       0.444678        12.1003 
  38   0.0000       0.444690        12.1006 
  39   0.0000       0.473847        12.8940 
  40   0.0000       0.534512        14.5448 
  41   0.0000       0.534514        14.5449 
  42   0.0000       0.545204        14.8358 
  43   0.0000       0.559467        15.2239 
  44   0.0000       0.559477        15.2242 
  45   0.0000       0.606509        16.5039 
  46   0.0000       0.606522        16.5043 
  47   0.0000       0.616098        16.7649 
  48   0.0000       0.669671        18.2227 
  49   0.0000       0.678393        18.4600 
  50   0.0000       0.678410        18.4605 
  51   0.0000       0.755963        20.5708 
  52   0.0000       0.755964        20.5708 
  53   0.0000       0.758433        20.6380 
  54   0.0000       0.775761        21.1095 
  55   0.0000       0.822491        22.3811 
  56   0.0000       0.822497        22.3813 
  57   0.0000       0.859217        23.3805 
  58   0.0000       0.913557        24.8591 
  59   0.0000       0.913564        24.8593 
  60   0.0000       0.956622        26.0310 
  61   0.0000       0.956628        26.0312 
  62   0.0000       1.015698        27.6385 
  63   0.0000       1.092564        29.7302 
  64   0.0000       1.102391        29.9976 
  65   0.0000       1.238746        33.7080 
  66   0.0000       1.238760        33.7084 
  67   0.0000       1.274553        34.6824 
  68   0.0000       1.274562        34.6826 
  69   0.0000       1.310548        35.6618 
  70   0.0000       1.377589        37.4861 
  71   0.0000       1.377603        37.4865 
  72   0.0000       1.390621        37.8407 
  73   0.0000       1.598700        43.5029 
  74   0.0000       1.598704        43.5030 
  75   0.0000       1.615639        43.9638 
  76   0.0000       1.651766        44.9468 
  77   0.0000       1.651779        44.9472 
  78   0.0000       1.684049        45.8253 
  79   0.0000       1.693516        46.0829 
  80   0.0000       1.693530        46.0833 
  81   0.0000       1.744842        47.4796 
  82   0.0000       1.860975        50.6397 
  83   0.0000       1.860985        50.6400 
  84   0.0000       1.968238        53.5585 
  85   0.0000       1.968241        53.5586 
  86   0.0000       2.000271        54.4301 
  87   0.0000       2.205243        60.0077 
  88   0.0000       2.319787        63.1246 
  89   0.0000       2.319799        63.1249 
  90   0.0000       2.504772        68.1583 
  91   0.0000       2.704526        73.5939 
  92   0.0000       2.734285        74.4037 
  93   0.0000       2.773383        75.4676 
  94   0.0000       2.773385        75.4677 
  95   0.0000       2.793565        76.0168 
  96   0.0000       2.817348        76.6640 
  97   0.0000       2.910326        79.1940 
  98   0.0000       2.910350        79.1947 
  99   0.0000       2.975720        80.9735 
 100   0.0000       2.978354        81.0451 
 101   0.0000       2.978361        81.0453 
 102   0.0000       3.048223        82.9464 
 103   0.0000       3.105997        84.5185 
 104   0.0000       3.106004        84.5187 
 105   0.0000       3.183711        86.6332 
 106   0.0000       3.183716        86.6333 
 107   0.0000       3.308419        90.0267 
 108   0.0000       3.308422        90.0267 
 109   0.0000       3.329084        90.5890 
 110   0.0000       3.329086        90.5890 
 111   0.0000       3.452496        93.9472 
 112   0.0000       3.494527        95.0909 
 113   0.0000       3.505148        95.3799 
 114   0.0000       3.505152        95.3800 
 115   0.0000       3.622624        98.5766 
 116   0.0000       3.660568        99.6091 
 117   0.0000       3.660599        99.6100 
 118   0.0000       3.759666       102.3057 
 119   0.0000       3.773387       102.6791 
 120   0.0000       3.773395       102.6793 
 121   0.0000       3.895666       106.0065 
 122   0.0000       4.089867       111.2909 
 123   0.0000       4.089881       111.2913 
 124   0.0000       4.138893       112.6250 
 125   0.0000       4.156823       113.1129 
 126   0.0000       4.156824       113.1129 
 127   0.0000       4.205767       114.4447 
 128   0.0000       4.207696       114.4972 
 129   0.0000       4.301850       117.0593 
 130   0.0000       4.335083       117.9636 
 131   0.0000       4.335092       117.9638 
 132   0.0000       4.420261       120.2814 
 133   0.0000       4.569845       124.3518 
 134   0.0000       4.569858       124.3522 
 135   0.0000       4.640909       126.2856 
 136   0.0000       4.825062       131.2966 
 137   0.0000       4.825075       131.2970 
 138   0.0000       4.986900       135.7005 
 139   0.0000       4.986913       135.7008 
 140   0.0000       4.992266       135.8465 
 141   0.0000       5.008693       136.2935 
 142   0.0000       5.008693       136.2935 
 143   0.0000       5.075706       138.1170 
 144   0.0000       5.297619       144.1556 
 145   0.0000       5.425140       147.6256 
 146   0.0000       5.425154       147.6259 
 147   0.0000       5.508366       149.8903 
 148   0.0000       5.512623       150.0061 
 149   0.0000       5.512629       150.0063 
 150   0.0000       5.562034       151.3506 
 151   0.0000       5.562050       151.3511 
 152   0.0000       5.736930       156.1098 
 153   0.0000       5.864718       159.5871 
 154   0.0000       5.864729       159.5874 
 155   0.0000       5.990714       163.0156 
 156   0.0000       6.089047       165.6914 
 157   0.0000       6.089054       165.6916 
 158   0.0000       6.435495       175.1187 
 159   0.0000      24.180405       657.9823 
 160   0.0000      24.357930       662.8130 
 161   0.0000      33.225869       904.1219 

                    ********************************
                    * MULLIKEN POPULATION ANALYSIS *
                    ********************************

-----------------------
MULLIKEN ATOMIC CHARGES
-----------------------
   0 N :   -0.267609
   1 C :    0.037275
   2 C :   -0.038154
   3 H :    0.089528
   4 H :    0.089563
   5 H :    0.089397
Sum of atomic charges:    0.0000000

--------------------------------
MULLIKEN REDUCED ORBITAL CHARGES
--------------------------------
  0 N s       :     3.932019  s :     3.932019
      pz      :     1.058072  p :     3.274833
      px      :     1.158488
      py      :     1.058274
      dz2     :     0.002805  d :     0.058221
      dxz     :     0.023480
      dyz     :     0.000140
      dx2y2   :     0.008371
      dxy     :     0.023426
      f0      :     0.000401  f :     0.002536
      f+1     :     0.000148
      f-1     :     0.000067
      f+2     :     0.000663
      f-2     :     0.000012
      f+3     :     0.000257
      f-3     :     0.000988
  1 C s       :     3.283485  s :     3.283485
      pz      :     0.856612  p :     2.572964
      px      :     0.859725
      py      :     0.856627
      dz2     :    -0.000606  d :     0.089321
      dxz     :     0.045704
      dyz     :    -0.000052
      dx2y2   :    -0.001143
      dxy     :     0.045418
      f0      :     0.002394  f :     0.016955
      f+1     :     0.001563
      f-1     :     0.000400
      f+2     :     0.003945
      f-2     :     0.000098
      f+3     :     0.002622
      f-3     :     0.005934
  2 C s       :     2.914685  s :     2.914685
      pz      :     1.118614  p :     3.024952
      px      :     0.788344
      py      :     1.117994
      dz2     :     0.015968  d :     0.095603
      dxz     :     0.023033
      dyz     :     0.018337
      dx2y2   :     0.013090
      dxy     :     0.025176
      f0      :     0.000075  f :     0.002914
      f+1     :     0.000609
      f-1     :     0.000731
      f+2     :     0.000130
      f-2     :     0.000181
      f+3     :     0.000978
      f-3     :     0.000209
  3 H s       :     0.870806  s :     0.870806
      pz      :     0.017811  p :     0.037650
      px      :     0.006743
      py      :     0.013096
      dz2     :     0.000640  d :     0.002017
      dxz     :     0.000431
      dyz     :     0.000455
      dx2y2   :     0.000297
      dxy     :     0.000193
  4 H s       :     0.870783  s :     0.870783
      pz      :     0.010537  p :     0.037636
      px      :     0.007508
      py      :     0.019591
      dz2     :     0.000149  d :     0.002017
      dxz     :     0.000093
      dyz     :     0.000607
      dx2y2   :     0.000644
      dxy     :     0.000525
  5 H s       :     0.870941  s :     0.870941
      pz      :     0.018101  p :     0.037645
      px      :     0.005812
      py      :     0.013732
      dz2     :     0.000637  d :     0.002017
      dxz     :     0.000431
      dyz     :     0.000444
      dx2y2   :     0.000297
      dxy     :     0.000207


                     *******************************
                     * LOEWDIN POPULATION ANALYSIS *
                     *******************************

----------------------
LOEWDIN ATOMIC CHARGES
----------------------
   0 N :    0.107788
   1 C :   -0.226307
   2 C :    0.132480
   3 H :   -0.004653
   4 H :   -0.004654
   5 H :   -0.004655

-------------------------------
LOEWDIN REDUCED ORBITAL CHARGES
-------------------------------
  0 N s       :     3.266763  s :     3.266763
      pz      :     0.979359  p :     3.411022
      px      :     1.451354
      py      :     0.980309
      dz2     :     0.024134  d :     0.198881
      dxz     :     0.051158
      dyz     :     0.000229
      dx2y2   :     0.071959
      dxy     :     0.051401
      f0      :     0.001648  f :     0.015546
      f+1     :     0.002524
      f-1     :     0.000280
      f+2     :     0.002727
      f-2     :     0.000051
      f+3     :     0.004195
      f-3     :     0.004121
  1 C s       :     2.760664  s :     2.760664
      pz      :     0.773762  p :     2.660309
      px      :     1.112104
      py      :     0.774444
      dz2     :     0.070884  d :     0.746027
      dxz     :     0.230090
      dyz     :     0.003252
      dx2y2   :     0.209103
      dxy     :     0.232697
      f0      :     0.006628  f :     0.059307
      f+1     :     0.008948
      f-1     :     0.001123
      f+2     :     0.010910
      f-2     :     0.000298
      f+3     :     0.014821
      f-3     :     0.016580
  2 C s       :     2.645518  s :     2.645518
      pz      :     0.932367  p :     2.733353
      px      :     0.868746
      py      :     0.932239
      dz2     :     0.073345  d :     0.457437
      dxz     :     0.102192
      dyz     :     0.056886
      dx2y2   :     0.113595
      dxy     :     0.111419
      f0      :     0.001769  f :     0.031212
      f+1     :     0.005736
      f-1     :     0.005272
      f+2     :     0.003146
      f-2     :     0.003395
      f+3     :     0.007448
      f-3     :     0.004446
  3 H s       :     0.699607  s :     0.699607
      pz      :     0.114152  p :     0.276391
      px      :     0.074977
      py      :     0.087261
      dz2     :     0.008972  d :     0.028655
      dxz     :     0.006286
      dyz     :     0.007314
      dx2y2   :     0.003428
      dxy     :     0.002655
  4 H s       :     0.699609  s :     0.699609
      pz      :     0.074713  p :     0.276390
      px      :     0.077245
      py      :     0.124431
      dz2     :     0.002615  d :     0.028655
      dxz     :     0.001205
      dyz     :     0.008452
      dx2y2   :     0.008443
      dxy     :     0.007940
  5 H s       :     0.699609  s :     0.699609
      pz      :     0.113483  p :     0.276391
      px      :     0.072409
      py      :     0.090498
      dz2     :     0.009015  d :     0.028655
      dxz     :     0.005941
      dyz     :     0.007389
      dx2y2   :     0.003529
      dxy     :     0.002782


                      *****************************
                      * MAYER POPULATION ANALYSIS *
                      *****************************

  NA   - Mulliken gross atomic population
  ZA   - Total nuclear charge
  QA   - Mulliken gross atomic charge
  VA   - Mayer's total valence
  BVA  - Mayer's bonded valence
  FA   - Mayer's free valence

  ATOM       NA         ZA         QA         VA         BVA        FA
  0 N      7.2676     7.0000    -0.2676     2.6310     2.6310    -0.0000
  1 C      5.9627     6.0000     0.0373     3.4639     3.4639     0.0000
  2 C      6.0382     6.0000    -0.0382     3.8786     3.8786     0.0000
  3 H      0.9105     1.0000     0.0895     1.0381     1.0381     0.0000
  4 H      0.9104     1.0000     0.0896     1.0380     1.0380    -0.0000
  5 H      0.9106     1.0000     0.0894     1.0381     1.0381     0.0000

  Mayer bond orders larger than 0.100000
B(  0-N ,  1-C ) :   2.5656 B(  1-C ,  2-C ) :   0.8979 B(  2-C ,  3-H ) :   0.9848 
B(  2-C ,  4-H ) :   0.9846 B(  2-C ,  5-H ) :   0.9848 

-------
TIMINGS
-------

Total SCF time: 0 days 0 hours 0 min 1 sec 

Total time                  ....       1.845 sec
Sum of individual times     ....       1.738 sec  ( 94.2%)

Fock matrix formation       ....       1.401 sec  ( 75.9%)
  XC integration            ....       0.325 sec  ( 23.2% of F)
    Basis function eval.    ....       0.050 sec  ( 15.5% of XC)
    Density eval.           ....       0.038 sec  ( 11.6% of XC)
    XC-Functional eval.     ....       0.011 sec  (  3.3% of XC)
    XC-Potential eval.      ....       0.071 sec  ( 22.0% of XC)
Diagonalization             ....       0.031 sec  (  1.7%)
Density matrix formation    ....       0.006 sec  (  0.4%)
Population analysis         ....       0.005 sec  (  0.3%)
Initial guess               ....       0.098 sec  (  5.3%)
Orbital Transformation      ....       0.000 sec  (  0.0%)
Orbital Orthonormalization  ....       0.000 sec  (  0.0%)
DIIS solution               ....       0.012 sec  (  0.6%)
SOSCF solution              ....       0.004 sec  (  0.2%)
Grid generation             ....       0.182 sec  (  9.8%)


           ************************************************************
           *        Program running with 24 parallel MPI-processes    *
           *              working on a common directory               *
           ************************************************************

------------------------------------------------------------------------------
                                ORCA  MP2 
------------------------------------------------------------------------------

Freezing NCore=6 chemical core electrons

-------------
RI-MP2 ENERGY
-------------
Dimension of the basis                    ...  162
Memory devoted to MP2                     ... 5000 MB   
Data format for buffers                   ... DOUBLE
Compression type for matrix containers    ... UNCOMPRESSED
Scaling for aa/bb pairs                   ...   4.000e-01
Scaling for ab pairs                      ...   4.700e-01
Overall scaling of the MP2 energy         ...   1.000e+00
Calculating two index integrals           ... done (    0.002 sec)
Cholesky decomposition of V**-1           ... done (    0.016 sec)

-----------------
RI-TRANSFORMATION (AUX index driven)
-----------------

Dimension of the orbital-basis         ... 162
Dimension of the aux-basis             ... 393
Transformation of internal/external MOs...    3-  10 to   11- 161
Number Format for Storage              ... Double (8 Byte)
Integral mode                          ... Direct

First Phase: integral generation and transformation of MO indices
  Aux angular momentum 0               ... done (    0.001 sec)
  Aux angular momentum 1               ... done (    0.002 sec)
  Aux angular momentum 2               ... done (    0.002 sec)
  Aux angular momentum 3               ... done (    0.002 sec)
  Aux angular momentum 4               ... done (    0.003 sec)
Closing buffer VIA ( 0.00 GB; CompressionRatio= 1.00)
  Phase 1 completed in     0.082 sec
Second Phase: sorting and transformation of aux index

IA-Transformation
Memory available                       ... 4997 MB 
Max. # MO pairs treated in a batch     ... 1    
# of internal orbitals                 ... 8
# batches for internal orbitals        ... 1
Closing buffer IAV ( 0.00 GB; CompressionRatio= 1.00)
(ia|v) transformation done in     0.004 sec

  Phase 2 completed in     0.008 sec
RI-Integral transformation completed in     0.091 sec
Opening buffers                              ... done

Starting loop over batches of integrals:

Operator 0  - window                       ... (  3- 10)x( 11-161)
Operator 0  - Memory available             ...  5000 MB
Operator 0  - Memory needed per MO         ...   0.5 MB
Operator 0  - Number of orbitals per batch ... 1
Operator 0  - Number of batches            ... 1

OPERATOR  0   PASS   0:  MOs     3 ...    3 +    4 ...    4 +    5 ...    5 +    6 ...    6
                            +    7 ...    7 +    8 ...    8 +    9 ...    9 +   10 ...   10
  Reading integrals       ... ok
Time spent in pair loops =     0.002 sec
Deleting buffer (Ka|jb)[aa] ...done

-----------------------------------------------
 RI-MP2 CORRELATION ENERGY:     -0.264648049 Eh
-----------------------------------------------


-------
TIMINGS
-------

Total time                :    0.132 sec
Integral trafo            :    0.108 sec ( 81.3%)
I/O of integrals          :    0.000 sec (  0.2%)
K(i,j) Operators          :    0.000 sec (  0.3%)
T(i,j) pair energies      :    0.000 sec (  0.1%)
V-calculation             :    0.002 sec (  1.3%)
V**(-1/2)                 :    0.016 sec ( 11.9%)
Gamma(ia|P)               :    0.000 sec (  0.0%)
Gamma-Trafo               :    0.000 sec (  0.0%)
D(virtual)                :    0.000 sec (  0.0%)
D(internal)               :    0.000 sec (  0.0%)
W(virtual)                :    0.000 sec (  0.0%)
W(internal)               :    0.000 sec (  0.0%)
L(virtual)                :    0.000 sec (  0.0%)
L(internal)               :    0.000 sec (  0.0%)
G(D)                      :    0.000 sec (  0.0%)
G(Z)                      :    0.000 sec (  0.0%)
Z-Vector Solution         :    0.000 sec (  0.0%)
Z-Vector Solution         :    0.000 sec (  0.0%)
3-Index Derivative 
+ Separable RIJ part      :    0.000 sec (  0.0%)
2-Index Derivative 
+ Separable RIJ part      :    0.000 sec (  0.0%)
Separable Gradient (X)    :    0.000 sec (  0.0%)


---------------------------------------
MP2 TOTAL ENERGY:     -132.644116549 Eh
---------------------------------------


-------------------------------------------------------------------------------
                          DFT DISPERSION CORRECTION                            
                                                                               
                              DFTD3 V3.1  Rev 1                                
                          USING Becke-Johnson damping                          
-------------------------------------------------------------------------------
The DSD-BLYP/2013 functional is recognized
Active option DFTDOPT                   ...         4   

molecular C6(AA) [au] = 386.358522 


            DFT-D V3
 parameters
 s6 scaling factor         :     0.5700 
 a1 scaling factor         :     0.0000 
 s8 scaling factor         :     0.0000 
 a2 scaling factor         :     5.4000 
 ad hoc parameters k1-k3   :    16.0000     1.3333    -4.0000 

 Edisp/kcal,au: -1.804777247413  -0.002876095309 
 E6   /kcal   :  -1.804777247 
 E8   /kcal   :  -0.000000000 
 % E8         :   0.000000000 

-------------------------   ----------------
Dispersion correction           -0.002876095
-------------------------   ----------------


-------------------------   --------------------
FINAL SINGLE POINT ENERGY      -132.646992643866
-------------------------   --------------------


                            ***************************************
                            *     ORCA property calculations      *
                            ***************************************


  WARNING: The energy has been calculated at the MP2 level but the densities
           used in the property calculations are still SCF densities
           MP2 response densities have not been calculated 
           use %mp2 Density relaxed end
           or  %mp2 Density unrelaxed end

                                    ---------------------
                                    Active property flags
                                    ---------------------
   (+) Dipole Moment


------------------------------------------------------------------------------
                       ORCA ELECTRIC PROPERTIES CALCULATION
------------------------------------------------------------------------------

Dipole Moment Calculation                       ... on
Quadrupole Moment Calculation                   ... off
Polarizability Calculation                      ... off
GBWName                                         ... MOR21_mecn.gbw
Electron density file                           ... MOR21_mecn.scfp
The origin for moment calculation is the CENTER OF MASS  = ( 0.212467,  0.012369 -0.007883)

-------------
DIPOLE MOMENT
-------------
                                X             Y             Z
Electronic contribution:      3.02983       0.17639      -0.11241
Nuclear contribution   :     -4.67428      -0.27212       0.17343
                        -----------------------------------------
Total Dipole Moment    :     -1.64445      -0.09573       0.06102
                        -----------------------------------------
Magnitude (a.u.)       :      1.64836
Magnitude (Debye)      :      4.18980



--------------------
Rotational spectrum 
--------------------
 
Rotational constants in cm-1:     5.279638     0.306561     0.306561 
Rotational constants in MHz : 158279.554854  9190.460473  9190.452676 

 Dipole components along the rotational axes: 
x,y,z [a.u.] :     1.648362     0.000003     0.000002 
x,y,z [Debye]:     4.189803     0.000007     0.000005 

 

Timings for individual modules:

Sum of individual times         ...        3.281 sec (=   0.055 min)
GTO integral calculation        ...        0.548 sec (=   0.009 min)  16.7 %
SCF iterations                  ...        2.160 sec (=   0.036 min)  65.8 %
MP2 module                      ...        0.573 sec (=   0.010 min)  17.5 %
                             ****ORCA TERMINATED NORMALLY****
TOTAL RUN TIME: 0 days 0 hours 0 minutes 3 seconds 757 msec
