
                                 *****************
                                 * O   R   C   A *
                                 *****************

           --- An Ab Initio, DFT and Semiempirical electronic structure package ---

                  #######################################################
                  #                        -***-                        #
                  #          Department of theory and spectroscopy      #
                  #               Directorship: Frank Neese             #
                  #        Max Planck Institute fuer Kohlenforschung    #
                  #                Kaiser Wilhelm Platz 1               #
                  #                 D-45470 Muelheim/Ruhr               #
                  #                      Germany                        #
                  #                                                     #
                  #                  All rights reserved                #
                  #                        -***-                        #
                  #######################################################


                         Program Version 4.2.0 -  RELEASE  -


 With contributions from (in alphabetic order):
   Daniel Aravena         : Magnetic Suceptibility
   Michael Atanasov       : Ab Initio Ligand Field Theory (pilot matlab implementation)
   Alexander A. Auer      : GIAO ZORA, VPT2
   Ute Becker             : Parallelization
   Giovanni Bistoni       : ED, misc. LED, open-shell LED, HFLED
   Martin Brehm           : Molecular dynamics
   Dmytro Bykov           : SCF Hessian
   Vijay G. Chilkuri      : MRCI spin determinant printing, contributions to CSF-ICE
   Dipayan Datta          : RHF DLPNO-CCSD density
   Achintya Kumar Dutta   : EOM-CC, STEOM-CC
   Dmitry Ganyushin       : Spin-Orbit,Spin-Spin,Magnetic field MRCI
   Miquel Garcia          : C-PCM Hessian, Gaussian charge scheme
   Yang Guo               : DLPNO-NEVPT2, CIM, IAO-localization
   Andreas Hansen         : Spin unrestricted coupled pair/coupled cluster methods
   Benjamin Helmich-Paris : CASSCF linear response (MC-RPA)
   Lee Huntington         : MR-EOM, pCC
   Robert Izsak           : Overlap fitted RIJCOSX, COSX-SCS-MP3, EOM
   Christian Kollmar      : KDIIS, OOCD, Brueckner-CCSD(T), CCSD density
   Simone Kossmann        : Meta GGA functionals, TD-DFT gradient, OOMP2, MP2 Hessian
   Martin Krupicka        : AUTO-CI
   Lucas Lang             : DCDCAS
   Dagmar Lenk            : GEPOL surface, SMD
   Dimitrios Liakos       : Extrapolation schemes; Compound Job, initial MDCI parallelization
   Dimitrios Manganas     : Further ROCIS development; embedding schemes
   Dimitrios Pantazis     : SARC Basis sets
   Taras Petrenko         : DFT Hessian,TD-DFT gradient, ASA, ECA, R-Raman, ABS, FL, XAS/XES, NRVS
   Peter Pinski           : DLPNO-MP2, DLPNO-MP2 Gradient
   Christoph Reimann      : Effective Core Potentials
   Marius Retegan         : Local ZFS, SOC
   Christoph Riplinger    : Optimizer, TS searches, QM/MM, DLPNO-CCSD(T), (RO)-DLPNO pert. Triples
   Tobias Risthaus        : Range-separated hybrids, TD-DFT gradient, RPA, STAB
   Michael Roemelt        : Original ROCIS implementation
   Masaaki Saitow         : Open-shell DLPNO-CCSD energy and density
   Barbara Sandhoefer     : DKH picture change effects
   Avijit Sen             : IP-ROCIS
   Kantharuban Sivalingam : CASSCF convergence, NEVPT2, FIC-MRCI
   Bernardo de Souza      : ESD, SOC TD-DFT
   Georgi Stoychev        : AutoAux, RI-MP2 NMR
   Willem Van den Heuvel  : Paramagnetic NMR
   Boris Wezisla          : Elementary symmetry handling
   Frank Wennmohs         : Technical directorship


 We gratefully acknowledge several colleagues who have allowed us to
 interface, adapt or use parts of their codes:
   Stefan Grimme, W. Hujo, H. Kruse,             : VdW corrections, initial TS optimization,
                  C. Bannwarth                     DFT functionals, gCP, sTDA/sTD-DF
   Ed Valeev, F. Pavosevic, A. Kumar             : LibInt (2-el integral package), F12 methods
   Garnet Chan, S. Sharma, J. Yang, R. Olivares  : DMRG
   Ulf Ekstrom                                   : XCFun DFT Library
   Mihaly Kallay                                 : mrcc  (arbitrary order and MRCC methods)
   Andreas Klamt, Michael Diedenhofen            : otool_cosmo (COSMO solvation model)
   Jiri Pittner, Ondrej Demel                    : Mk-CCSD
   Frank Weinhold                                : gennbo (NPA and NBO analysis)
   Christopher J. Cramer and Donald G. Truhlar   : smd solvation model
   Lars Goerigk                                  : TD-DFT with DH, B97 family of functionals
   V. Asgeirsson, H. Jonsson                     : NEB implementation
   FAccTs GmbH                                   : IRC, NEB, NEB-TS, Multilevel, MM, QM/MM, CI optimization
   S Lehtola, MJT Oliveira, MAL Marques          : LibXC Library


 Your calculation uses the libint2 library for the computation of 2-el integrals
 For citations please refer to: http://libint.valeyev.net

 Your ORCA version has been built with support for libXC version: 4.2.3
 For citations please refer to: https://tddft.org/programs/libxc/

 This ORCA versions uses:
   CBLAS   interface :  Fast vector & matrix operations
   LAPACKE interface :  Fast linear algebra routines
   SCALAPACK package :  Parallel linear algebra routines


Your calculation utilizes the atom-pairwise dispersion correction
with the Becke-Johnson damping scheme (D3BJ)
Cite in your paper:
S.Grimme, S.Ehrlich, L.Goerigk, J Comput Chem, (2011), 32, 1456–1465 
S.Grimme, J.Antony, S.Ehrlich and H.Krieg, J.Chem.Phys., 132, (2010), 154104 
   

----- Orbital basis set information -----
Your calculation utilizes the basis: def2-TZVPPD
   F. Weigend and R. Ahlrichs, Phys. Chem. Chem. Phys. 7, 3297 (2005).
   D. Rappoport and F. Furche, J. Chem. Phys. 133 134105 (2010).

----- AuxC basis set information -----
Your calculation utilizes the auxiliary basis: def2-TZVPPD/C
   A. Hellweg, C. Hattig, S. Hofener and W. Klopper, Theor. Chem. Acc. 117, 587 (2007).

----- AuxJK basis set information -----
Your calculation utilizes the auxiliary basis: def2/JK
   H-Ba, Hf-Rn: F. Weigend, J. Comput. Chem. 29, 167 (2008).

cite the ECPs for Rh [Def2-ECP] as follows:
Ce-Yb(ecp-28): M. Dolg, H. Stoll, H.Preuss, J. Chem. Phys., 1989, 90, 1730-1734.
Y-Cd(ecp-28), Hf-Hg(ecp-46): D. Andrae,U. Haeussermann, M. Dolg, H. Stoll, H. Preuss, Theor. Chim. Acta, 1990, 77, 123-141.
In-Sb(ecp-28), Tl-Bi(ecp-46): B. Metz, H. Stoll, M. Dolg, J. Chem. Phys., 2000, 113, 2563-2569.
Te-Xe(ecp-28), Po-Rn(ecp-46): K. A. Peterson, D. Figgen, E. Goll, H. Stoll, M. Dolg, J. Chem. Phys., 2003, 119, 11113-11123.
Rb(ecp-28), Cs(ecp-46): T. Leininger, A. Nicklass, W. Kuechle, H. Stoll, M. Dolg, A. Bergner, Chem. Phys. Lett., 1996, 255, 274-280.
Sr(ecp-28), Ba(ecp-46): M. Kaupp, P. V. Schleyer, H. Stoll and H. Preuss, J. Chem. Phys., 1991, 94, 1360-1366.
La(ecp-46): M. Dolg, H. Stoll, A. Savin, H. Preuss, Theor. Chim. Acta, 1989, 75, 173-194.
Lu(ecp-28): X. Cao, M. Dolg, J. Chem. Phys., 2001, 115, 7348-7355.

ECP parameters for Rh [Def2-ECP] have been obtained from:
TURBOMOLE (7.0.2)

================================================================================
                                        WARNINGS
                       Please study these warnings very carefully!
================================================================================


WARNING: No MP2 level density has been requested!
         To caclulate MP2 level properties use
         %mp2 Density relaxed end
         or
         %mp2 Density unrelaxed end
         Otherwise for double-hybrid DFT only the energy is correct!

WARNING: There are different parametrizations of Gershom Martin's DSD-DFs
         for use with and without D3(BJ)!
         You are using the D3(BJ) parametrized version,
         consistent with the 2013 article (S. Kozuch and J. M. L. Martin, JCC 2013, 34, 2327)

WARNING: The frozen-core approximation is turned on by default for 
         the MP2 part of double-hybrid DFT.

INFO   : the flag for use of LIBINT has been found!

================================================================================
                                       INPUT FILE
================================================================================
NAME = MOR28_pr09.in
|  1> #
|  2> # MOR28_pr09 ri-DSD-BLYP/2013-D3BJ/Def2-TZVPPD
|  3> #
|  4> ! rijk ri-dsd-blyp/2013 d3bj def2-tzvppd def2/jk def2-tzvppd/c grid4 nofinalgrid
|  5> 
|  6> *xyz 0 1
|  7> Rh       0.002553    0.015324   -0.037445 
|  8> P       -2.290286    0.102034   -0.002141 
|  9> P        2.295185    0.104741   -0.029108 
| 10> H       -0.000447    1.293328    0.830281 
| 11> H        0.001130    1.304527   -0.889045 
| 12> Cl       0.007749   -2.380443   -0.037879 
| 13> C        3.048741    1.714400   -0.468454 
| 14> C        3.042509   -0.273930    1.598336 
| 15> C        3.097153   -1.069215   -1.172055 
| 16> C       -3.110022   -0.330980   -1.580554 
| 17> C       -3.050128   -1.025999    1.213911 
| 18> C       -3.019556    1.731005    0.405513 
| 19> C        4.221249    1.798414   -1.230361 
| 20> C        4.789108    3.041134   -1.513476 
| 21> C        4.197347    4.208872   -1.032572 
| 22> C        3.028536    4.131819   -0.272310 
| 23> C        2.452968    2.893237    0.001453 
| 24> H        4.686057    0.892043   -1.605584 
| 25> H        5.694526    3.094809   -2.111614 
| 26> H        4.640059    5.175809   -1.254830 
| 27> H        2.559280    5.038271    0.099833 
| 28> H        1.532532    2.831516    0.574445 
| 29> C        2.492740   -1.274577   -2.419700 
| 30> C        3.069210   -2.141848   -3.343202 
| 31> C        4.245283   -2.823200   -3.021963 
| 32> C        4.842886   -2.633499   -1.775820 
| 33> C        4.272633   -1.757382   -0.851682 
| 34> H        1.559916   -0.765736   -2.648777 
| 35> H        2.592837   -2.299617   -4.306681 
| 36> H        4.688326   -3.509606   -3.738122 
| 37> H        5.750981   -3.171899   -1.518950 
| 38> H        4.733770   -1.615306    0.121218 
| 39> C        2.573432   -1.401325    2.291237 
| 40> C        3.112349   -1.729837    3.532773 
| 41> C        4.110733   -0.934394    4.100320 
| 42> C        4.573407    0.190471    3.418246 
| 43> C        4.043987    0.520908    2.169837 
| 44> H        1.789551   -2.010529    1.847481 
| 45> H        2.746524   -2.605505    4.061892 
| 46> H        4.523765   -1.189174    5.072491 
| 47> H        5.347947    0.814312    3.855909 
| 48> H        4.408962    1.396682    1.642408 
| 49> C       -4.114004    1.861395    1.269146 
| 50> C       -4.661457    3.119187    1.526531 
| 51> C       -4.128475    4.254505    0.917253 
| 52> C       -3.037090    4.130954    0.054341 
| 53> C       -2.480194    2.878757   -0.192845 
| 54> H       -4.534614    0.980084    1.743054 
| 55> H       -5.505661    3.209295    2.204432 
| 56> H       -4.556024    5.232793    1.118339 
| 57> H       -2.613755    5.012384   -0.419158 
| 58> H       -1.618255    2.782567   -0.846864 
| 59> C       -4.156822    0.429958   -2.116482 
| 60> C       -4.751801    0.052668   -3.321119 
| 61> C       -4.309469   -1.085441   -3.994829 
| 62> C       -3.265632   -1.846455   -3.463206 
| 63> C       -2.661736   -1.471384   -2.265369 
| 64> H       -4.506373    1.315520   -1.594998 
| 65> H       -5.561640    0.650007   -3.730969 
| 66> H       -4.773990   -1.377169   -4.932751 
| 67> H       -2.915705   -2.732129   -3.986302 
| 68> H       -1.843939   -2.054854   -1.849211 
| 69> C       -2.377196   -1.225504    2.426817 
| 70> C       -2.923708   -2.054207    3.402951 
| 71> C       -4.138807   -2.701607    3.169380 
| 72> C       -4.805427   -2.517892    1.957599 
| 73> C       -4.264583   -1.681339    0.980942 
| 74> H       -1.416572   -0.742639    2.587014 
| 75> H       -2.394478   -2.207926    4.339105 
| 76> H       -4.559549   -3.357196    3.926721 
| 77> H       -5.744700   -3.030292    1.768738 
| 78> H       -4.779554   -1.544060    0.034665 
| 79> *
| 80> 
| 81> %maxcore 5000
| 82> 
| 83> %pal
| 84> nprocs = 24
| 85> end
| 86> 
| 87> 
| 88>                          ****END OF INPUT****
================================================================================

                       ****************************
                       * Single Point Calculation *
                       ****************************

---------------------------------
CARTESIAN COORDINATES (ANGSTROEM)
---------------------------------
  Rh     0.002553    0.015324   -0.037445
  P     -2.290286    0.102034   -0.002141
  P      2.295185    0.104741   -0.029108
  H     -0.000447    1.293328    0.830281
  H      0.001130    1.304527   -0.889045
  Cl     0.007749   -2.380443   -0.037879
  C      3.048741    1.714400   -0.468454
  C      3.042509   -0.273930    1.598336
  C      3.097153   -1.069215   -1.172055
  C     -3.110022   -0.330980   -1.580554
  C     -3.050128   -1.025999    1.213911
  C     -3.019556    1.731005    0.405513
  C      4.221249    1.798414   -1.230361
  C      4.789108    3.041134   -1.513476
  C      4.197347    4.208872   -1.032572
  C      3.028536    4.131819   -0.272310
  C      2.452968    2.893237    0.001453
  H      4.686057    0.892043   -1.605584
  H      5.694526    3.094809   -2.111614
  H      4.640059    5.175809   -1.254830
  H      2.559280    5.038271    0.099833
  H      1.532532    2.831516    0.574445
  C      2.492740   -1.274577   -2.419700
  C      3.069210   -2.141848   -3.343202
  C      4.245283   -2.823200   -3.021963
  C      4.842886   -2.633499   -1.775820
  C      4.272633   -1.757382   -0.851682
  H      1.559916   -0.765736   -2.648777
  H      2.592837   -2.299617   -4.306681
  H      4.688326   -3.509606   -3.738122
  H      5.750981   -3.171899   -1.518950
  H      4.733770   -1.615306    0.121218
  C      2.573432   -1.401325    2.291237
  C      3.112349   -1.729837    3.532773
  C      4.110733   -0.934394    4.100320
  C      4.573407    0.190471    3.418246
  C      4.043987    0.520908    2.169837
  H      1.789551   -2.010529    1.847481
  H      2.746524   -2.605505    4.061892
  H      4.523765   -1.189174    5.072491
  H      5.347947    0.814312    3.855909
  H      4.408962    1.396682    1.642408
  C     -4.114004    1.861395    1.269146
  C     -4.661457    3.119187    1.526531
  C     -4.128475    4.254505    0.917253
  C     -3.037090    4.130954    0.054341
  C     -2.480194    2.878757   -0.192845
  H     -4.534614    0.980084    1.743054
  H     -5.505661    3.209295    2.204432
  H     -4.556024    5.232793    1.118339
  H     -2.613755    5.012384   -0.419158
  H     -1.618255    2.782567   -0.846864
  C     -4.156822    0.429958   -2.116482
  C     -4.751801    0.052668   -3.321119
  C     -4.309469   -1.085441   -3.994829
  C     -3.265632   -1.846455   -3.463206
  C     -2.661736   -1.471384   -2.265369
  H     -4.506373    1.315520   -1.594998
  H     -5.561640    0.650007   -3.730969
  H     -4.773990   -1.377169   -4.932751
  H     -2.915705   -2.732129   -3.986302
  H     -1.843939   -2.054854   -1.849211
  C     -2.377196   -1.225504    2.426817
  C     -2.923708   -2.054207    3.402951
  C     -4.138807   -2.701607    3.169380
  C     -4.805427   -2.517892    1.957599
  C     -4.264583   -1.681339    0.980942
  H     -1.416572   -0.742639    2.587014
  H     -2.394478   -2.207926    4.339105
  H     -4.559549   -3.357196    3.926721
  H     -5.744700   -3.030292    1.768738
  H     -4.779554   -1.544060    0.034665

----------------------------
CARTESIAN COORDINATES (A.U.)
----------------------------
  NO LB      ZA    FRAG     MASS         X           Y           Z
   0 Rh   17.0000*   0   102.910    0.004824    0.028958   -0.070761
   1 P    15.0000    0    30.974   -4.328013    0.192816   -0.004046
   2 P    15.0000    0    30.974    4.337271    0.197932   -0.055006
   3 H     1.0000    0     1.008   -0.000845    2.444036    1.569004
   4 H     1.0000    0     1.008    0.002135    2.465199   -1.680052
   5 Cl   17.0000    0    35.453    0.014643   -4.498385   -0.071581
   6 C     6.0000    0    12.011    5.761286    3.239746   -0.885250
   7 C     6.0000    0    12.011    5.749509   -0.517653    3.020417
   8 C     6.0000    0    12.011    5.852771   -2.020524   -2.214863
   9 C     6.0000    0    12.011   -5.877090   -0.625462   -2.986814
  10 C     6.0000    0    12.011   -5.763907   -1.938857    2.293959
  11 C     6.0000    0    12.011   -5.706134    3.271125    0.766309
  12 C     6.0000    0    12.011    7.977005    3.398510   -2.325045
  13 C     6.0000    0    12.011    9.050103    5.746910   -2.860055
  14 C     6.0000    0    12.011    7.931836    7.953615   -1.951278
  15 C     6.0000    0    12.011    5.723104    7.808006   -0.514591
  16 C     6.0000    0    12.011    4.635438    5.467426    0.002746
  17 H     1.0000    0     1.008    8.855364    1.685717   -3.034114
  18 H     1.0000    0     1.008   10.761095    5.848341   -3.990372
  19 H     1.0000    0     1.008    8.768441    9.780862   -2.371285
  20 H     1.0000    0     1.008    4.836338    9.520952    0.188657
  21 H     1.0000    0     1.008    2.896066    5.350790    1.085544
  22 C     6.0000    0    12.011    4.710596   -2.408601   -4.572570
  23 C     6.0000    0    12.011    5.799966   -4.047506   -6.317736
  24 C     6.0000    0    12.011    8.022422   -5.335075   -5.710682
  25 C     6.0000    0    12.011    9.151728   -4.976592   -3.355813
  26 C     6.0000    0    12.011    8.074106   -3.320971   -1.609446
  27 H     1.0000    0     1.008    2.947814   -1.447031   -5.005463
  28 H     1.0000    0     1.008    4.899752   -4.345646   -8.138448
  29 H     1.0000    0     1.008    8.859652   -6.632194   -7.064027
  30 H     1.0000    0     1.008   10.867779   -5.994020   -2.870400
  31 H     1.0000    0     1.008    8.945529   -3.052486    0.229069
  32 C     6.0000    0    12.011    4.863082   -2.648120    4.329810
  33 C     6.0000    0    12.011    5.881487   -3.268918    6.675973
  34 C     6.0000    0    12.011    7.768160   -1.765749    7.748482
  35 C     6.0000    0    12.011    8.642487    0.359938    6.459549
  36 C     6.0000    0    12.011    7.642028    0.984373    4.100398
  37 H     1.0000    0     1.008    3.381761   -3.799349    3.491233
  38 H     1.0000    0     1.008    5.190178   -4.923691    7.675863
  39 H     1.0000    0     1.008    8.548677   -2.247213    9.585619
  40 H     1.0000    0     1.008   10.106155    1.538827    7.286612
  41 H     1.0000    0     1.008    8.331731    2.639346    3.103701
  42 C     6.0000    0    12.011   -7.774341    3.517527    2.398338
  43 C     6.0000    0    12.011   -8.808877    5.894409    2.884726
  44 C     6.0000    0    12.011   -7.801687    8.039849    1.733357
  45 C     6.0000    0    12.011   -5.739268    7.806372    0.102690
  46 C     6.0000    0    12.011   -4.686887    5.440062   -0.364424
  47 H     1.0000    0     1.008   -8.569179    1.852090    3.293895
  48 H     1.0000    0     1.008  -10.404191    6.064689    4.165773
  49 H     1.0000    0     1.008   -8.609638    9.888546    2.113354
  50 H     1.0000    0     1.008   -4.939281    9.472033   -0.792094
  51 H     1.0000    0     1.008   -3.058059    5.258290   -1.600341
  52 C     6.0000    0    12.011   -7.855255    0.812503   -3.999571
  53 C     6.0000    0    12.011   -8.979603    0.099528   -6.276005
  54 C     6.0000    0    12.011   -8.143716   -2.051186   -7.549133
  55 C     6.0000    0    12.011   -6.171150   -3.489294   -6.544511
  56 C     6.0000    0    12.011   -5.029952   -2.780513   -4.280927
  57 H     1.0000    0     1.008   -8.515811    2.485973   -3.014109
  58 H     1.0000    0     1.008  -10.509976    1.228335   -7.050510
  59 H     1.0000    0     1.008   -9.021534   -2.602472   -9.321548
  60 H     1.0000    0     1.008   -5.509884   -5.162976   -7.533019
  61 H     1.0000    0     1.008   -3.484540   -3.883111   -3.494502
  62 C     6.0000    0    12.011   -4.492249   -2.315867    4.586020
  63 C     6.0000    0    12.011   -5.525007   -3.881889    6.430645
  64 C     6.0000    0    12.011   -7.821212   -5.105297    5.989260
  65 C     6.0000    0    12.011   -9.080941   -4.758126    3.699326
  66 C     6.0000    0    12.011   -8.058894   -3.177270    1.853712
  67 H     1.0000    0     1.008   -2.676933   -1.403384    4.888748
  68 H     1.0000    0     1.008   -4.524908   -4.172375    8.199720
  69 H     1.0000    0     1.008   -8.616299   -6.344181    7.420427
  70 H     1.0000    0     1.008  -10.855910   -5.726422    3.342430
  71 H     1.0000    0     1.008   -9.032048   -2.917851    0.065507
* core charge reduced due to ECP

--------------------------------
INTERNAL COORDINATES (ANGSTROEM)
--------------------------------
 Rh     0   0   0     0.000000000000     0.00000000     0.00000000
 P      1   0   0     2.294749589048     0.00000000     0.00000000
 P      1   2   0     2.294390200659   175.46790937     0.00000000
 H      1   2   3     1.544749699819    87.60182724    20.27659786
 H      1   2   4     1.545078949484    88.62653194   292.34270864
 Cl     1   2   4     2.395772673911    92.28991802   145.80580958
 C      3   1   4     1.830812292162   116.40245330   310.16438078
 C      3   1   4     1.830425868576   113.77426055    69.89215437
 C      3   1   4     1.824185628649   114.32655176   189.38302179
 C      2   1   4     1.830534302454   115.16556931   140.42172529
 C      2   1   4     1.824445335097   113.76730973   260.35690386
 C      2   1   4     1.830727460726   115.78948979    20.28869998
 C      7   3   1     1.400833908395   121.85418118   217.68935157
 C     13   7   3     1.395339007376   120.29196881   181.87192107
 C     14  13   7     1.394654715326   120.20335537     0.39327954
 C     15  14  13     1.396443563906   119.77990362   359.61865988
 C     16  15  14     1.392950133177   120.12627032   359.79694213
 H     13   7   3     1.085517004120   119.75725034     2.17890224
 H     14  13   7     1.086476795607   119.65987214   180.45550880
 H     15  14  13     1.086443599768   120.11611573   180.07062138
 H     16  15  14     1.086437680812   120.12996905   180.38926888
 H     17  16  15     1.085970415804   120.29490122   181.30616847
 C      9   3   1     1.401465900990   117.54756577    38.71278201
 C     23   9   3     1.391880954804   120.22220890   178.95920467
 C     24  23   9     1.396632644740   120.00849461     0.76629328
 C     25  24  23     1.394986806912   119.99114663   359.94047337
 C     26  25  24     1.395277938169   120.13014470   359.59454838
 H     23   9   3     1.086994043308   119.28288780   357.69523632
 H     24  23   9     1.086330555554   119.82369727   179.72803905
 H     25  24  23     1.086427176559   120.00030433   179.23154526
 H     26  25  24     1.086505078647   120.12281742   179.23296441
 H     27  26  25     1.085986801276   120.13009380   179.54379502
 C      8   3   1     1.403981664323   117.93762956    46.91908620
 C     33   8   3     1.392753857050   120.00440915   179.96392340
 C     34  33   8     1.397000277349   120.29029753     0.62777363
 C     35  34  33     1.394493972729   119.84827752   359.74530276
 C     36  35  34     1.395707411548   120.17360413   359.84387374
 H     33   8   3     1.087436583582   119.29461448     0.00000000
 H     34  33   8     1.086549259357   119.59818563   180.18509434
 H     35  34  33     1.086565568507   120.10850415   179.53504400
 H     36  35  34     1.086571997822   120.17344383   179.84223614
 H     37  36  35     1.085526692321   119.87219591   180.10519873
 C     12   2   1     1.400242813048   122.11035621   222.45359428
 C     43  12   2     1.395705033558   120.28088791   181.65678806
 C     44  43  12     1.394358796986   120.21561404     0.48444701
 C     45  44  43     1.396783156961   119.77482488   359.54402726
 C     46  45  44     1.392562889144   120.11039039   359.76950852
 H     43  12   2     1.085454118461   119.77193331     1.92144314
 H     44  43  12     1.086438958746   119.64315136   180.47883602
 H     45  44  43     1.086407445547   120.12471973   179.97483472
 H     46  45  44     1.086431162166   120.12884899   180.34087972
 H     47  46  45     1.086246844958   120.25356306   181.30496413
 C     10   2   1     1.400726847400   122.41631937   225.72440542
 C     53  10   2     1.395527877296   120.13383855   180.28238152
 C     54  53  10     1.394573360639   120.16030917     0.17610373
 C     55  54  53     1.396911237300   119.85177045   359.81679258
 C     56  55  54     1.392904200735   120.30139682   359.79824218
 H     53  10   2     1.085519009369   120.00139571     0.32483229
 H     54  53  10     1.086568041745   119.65241460   180.14770669
 H     55  54  53     1.086546208640   120.03489159   180.01699768
 H     56  55  54     1.086506679603   120.10076697   180.19369707
 H     57  56  55     1.087389835833   120.71001166   180.44286715
 C     11   2   1     1.401349594671   117.70577026    35.54878052
 C     63  11   2     1.392214643763   120.20483192   178.69125724
 C     64  63  11     1.396476907021   120.01613499     0.71407556
 C     65  64  63     1.395186947182   119.99782435     0.00000000
 C     66  65  64     1.395059873193   120.11766724   359.59213207
 H     63  11   2     1.087023530753   119.25378599   357.45762701
 H     64  63  11     1.086323264768   119.81517582   179.72500257
 H     65  64  63     1.086455778100   120.00756179   179.30181581
 H     66  65  64     1.086487922551   120.12813246   179.23434248
 H     67  66  65     1.086039048751   120.12957891   179.53830482

---------------------------
INTERNAL COORDINATES (A.U.)
---------------------------
 Rh     0   0   0     0.000000000000     0.00000000     0.00000000
 P      1   0   0     4.336448269229     0.00000000     0.00000000
 P      1   2   0     4.335769123599   175.46790937     0.00000000
 H      1   2   3     2.919153878116    87.60182724    20.27659786
 H      1   2   4     2.919776069811    88.62653194   292.34270864
 Cl     1   2   4     4.527354232825    92.28991802   145.80580958
 C      3   1   4     3.459733834804   116.40245330   310.16438078
 C      3   1   4     3.459003600054   113.77426055    69.89215437
 C      3   1   4     3.447211255581   114.32655176   189.38302179
 C      2   1   4     3.459208510387   115.16556931   140.42172529
 C      2   1   4     3.447702029643   113.76730973   260.35690386
 C      2   1   4     3.459573526622   115.78948979    20.28869998
 C      7   3   1     2.647192445977   121.85418118   217.68935157
 C     13   7   3     2.636808587919   120.29196881   181.87192107
 C     14  13   7     2.635515463348   120.20335537     0.39327954
 C     15  14  13     2.638895897259   119.77990362   359.61865988
 C     16  15  14     2.632294269913   120.12627032   359.79694213
 H     13   7   3     2.051329851502   119.75725034     2.17890224
 H     14  13   7     2.053143594558   119.65987214   180.45550880
 H     15  14  13     2.053080863513   120.11611573   180.07062138
 H     16  15  14     2.053069678308   120.12996905   180.38926888
 H     17  16  15     2.052186675410   120.29490122   181.30616847
 C      9   3   1     2.648386738900   117.54756577    38.71278201
 C     23   9   3     2.630273815600   120.22220890   178.95920467
 C     24  23   9     2.639253208253   120.00849461     0.76629328
 C     25  24  23     2.636143025497   119.99114663   359.94047337
 C     26  25  24     2.636693183842   120.13014470   359.59454838
 H     23   9   3     2.054121051055   119.28288780   357.69523632
 H     24  23   9     2.052867240908   119.82369727   179.72803905
 H     25  24  23     2.053049828146   120.00030433   179.23154526
 H     26  25  24     2.053197041757   120.12281742   179.23296441
 H     27  26  25     2.052217639464   120.13009380   179.54379502
 C      8   3   1     2.653140842617   117.93762956    46.91908620
 C     33   8   3     2.631923361788   120.00440915   179.96392340
 C     34  33   8     2.639947933202   120.29029753     0.62777363
 C     35  34  33     2.635211703861   119.84827752   359.74530276
 C     36  35  34     2.637504770910   120.17360413   359.84387374
 H     33   8   3     2.054957330977   119.29461448     0.00000000
 H     34  33   8     2.053280531200   119.59818563   180.18509434
 H     35  34  33     2.053311351027   120.10850415   179.53504400
 H     36  35  34     2.053323500670   120.17344383   179.84223614
 H     37  36  35     2.051348159549   119.87219591   180.10519873
 C     12   2   1     2.646075437653   122.11035621   222.45359428
 C     43  12   2     2.637500277159   120.28088791   181.65678806
 C     44  43  12     2.634956258727   120.21561404     0.48444701
 C     45  44  43     2.639537635130   119.77482488   359.54402726
 C     46  45  44     2.631562484744   120.11039039   359.76950852
 H     43  12   2     2.051211014829   119.77193331     1.92144314
 H     44  43  12     2.053072093252   119.64315136   180.47883602
 H     45  44  43     2.053012541938   120.12471973   179.97483472
 H     46  45  44     2.053057359852   120.12884899   180.34087972
 H     47  46  45     2.052709050807   120.25356306   181.30496413
 C     10   2   1     2.646990130017   122.41631937   225.72440542
 C     53  10   2     2.637165500342   120.13383855   180.28238152
 C     54  53  10     2.635361725271   120.16030917     0.17610373
 C     55  54  53     2.639779671893   119.85177045   359.81679258
 C     56  55  54     2.632207470178   120.30139682   359.79824218
 H     53  10   2     2.051333640873   120.00139571     0.32483229
 H     54  53  10     2.053316024770   119.65241460   180.14770669
 H     55  54  53     2.053274766179   120.03489159   180.01699768
 H     56  55  54     2.053200067125   120.10076697   180.19369707
 H     57  56  55     2.054868990534   120.71001166   180.44286715
 C     11   2   1     2.648166951810   117.70577026    35.54878052
 C     63  11   2     2.630904396347   120.20483192   178.69125724
 C     64  63  11     2.638958906614   120.01613499     0.71407556
 C     65  64  63     2.636521235795   119.99782435     0.00000000
 C     66  65  64     2.636281100758   120.11766724   359.59213207
 H     63  11   2     2.054176774251   119.25378599   357.45762701
 H     64  63  11     2.052853463319   119.81517582   179.72500257
 H     65  64  63     2.053103877225   120.00756179   179.30181581
 H     66  65  64     2.053164621435   120.12813246   179.23434248
 H     67  66  65     2.052316372883   120.12957891   179.53830482

---------------------
BASIS SET INFORMATION
---------------------
There are 5 groups of distinct atoms

 Group   1 Type Rh  : 7s7p6d2f1g contracted to 6s4p3d2f1g pattern {211111/4111/411/11/1}
 Group   2 Type P   : 15s9p4d1f contracted to 6s5p4d1f pattern {732111/51111/1111/1}
 Group   3 Type H   : 5s3p1d contracted to 3s3p1d pattern {311/111/1}
 Group   4 Type Cl  : 15s10p4d1f contracted to 6s6p4d1f pattern {732111/511111/1111/1}
 Group   5 Type C   : 12s6p3d1f contracted to 6s3p3d1f pattern {621111/411/111/1}

Atom   0Rh   basis set group =>   1
Atom   1P    basis set group =>   2
Atom   2P    basis set group =>   2
Atom   3H    basis set group =>   3
Atom   4H    basis set group =>   3
Atom   5Cl   basis set group =>   4
Atom   6C    basis set group =>   5
Atom   7C    basis set group =>   5
Atom   8C    basis set group =>   5
Atom   9C    basis set group =>   5
Atom  10C    basis set group =>   5
Atom  11C    basis set group =>   5
Atom  12C    basis set group =>   5
Atom  13C    basis set group =>   5
Atom  14C    basis set group =>   5
Atom  15C    basis set group =>   5
Atom  16C    basis set group =>   5
Atom  17H    basis set group =>   3
Atom  18H    basis set group =>   3
Atom  19H    basis set group =>   3
Atom  20H    basis set group =>   3
Atom  21H    basis set group =>   3
Atom  22C    basis set group =>   5
Atom  23C    basis set group =>   5
Atom  24C    basis set group =>   5
Atom  25C    basis set group =>   5
Atom  26C    basis set group =>   5
Atom  27H    basis set group =>   3
Atom  28H    basis set group =>   3
Atom  29H    basis set group =>   3
Atom  30H    basis set group =>   3
Atom  31H    basis set group =>   3
Atom  32C    basis set group =>   5
Atom  33C    basis set group =>   5
Atom  34C    basis set group =>   5
Atom  35C    basis set group =>   5
Atom  36C    basis set group =>   5
Atom  37H    basis set group =>   3
Atom  38H    basis set group =>   3
Atom  39H    basis set group =>   3
Atom  40H    basis set group =>   3
Atom  41H    basis set group =>   3
Atom  42C    basis set group =>   5
Atom  43C    basis set group =>   5
Atom  44C    basis set group =>   5
Atom  45C    basis set group =>   5
Atom  46C    basis set group =>   5
Atom  47H    basis set group =>   3
Atom  48H    basis set group =>   3
Atom  49H    basis set group =>   3
Atom  50H    basis set group =>   3
Atom  51H    basis set group =>   3
Atom  52C    basis set group =>   5
Atom  53C    basis set group =>   5
Atom  54C    basis set group =>   5
Atom  55C    basis set group =>   5
Atom  56C    basis set group =>   5
Atom  57H    basis set group =>   3
Atom  58H    basis set group =>   3
Atom  59H    basis set group =>   3
Atom  60H    basis set group =>   3
Atom  61H    basis set group =>   3
Atom  62C    basis set group =>   5
Atom  63C    basis set group =>   5
Atom  64C    basis set group =>   5
Atom  65C    basis set group =>   5
Atom  66C    basis set group =>   5
Atom  67H    basis set group =>   3
Atom  68H    basis set group =>   3
Atom  69H    basis set group =>   3
Atom  70H    basis set group =>   3
Atom  71H    basis set group =>   3
---------------------------------
AUXILIARY/C BASIS SET INFORMATION
---------------------------------
There are 5 groups of distinct atoms

 Group   1 Type Rh  : 8s7p6d5f4g3h1i contracted to 8s7p6d5f4g3h1i pattern {11111111/1111111/111111/11111/1111/111/1}
 Group   2 Type P   : 12s9p8d6f2g contracted to 12s9p8d6f2g pattern {111111111111/111111111/11111111/111111/11}
 Group   3 Type H   : 5s4p3d1f contracted to 5s4p3d1f pattern {11111/1111/111/1}
 Group   4 Type Cl  : 12s9p8d6f2g contracted to 12s9p8d6f2g pattern {111111111111/111111111/11111111/111111/11}
 Group   5 Type C   : 9s7p6d4f1g contracted to 9s7p5d4f1g pattern {111111111/1111111/21111/1111/1}

Atom   0Rh   basis set group =>   1
Atom   1P    basis set group =>   2
Atom   2P    basis set group =>   2
Atom   3H    basis set group =>   3
Atom   4H    basis set group =>   3
Atom   5Cl   basis set group =>   4
Atom   6C    basis set group =>   5
Atom   7C    basis set group =>   5
Atom   8C    basis set group =>   5
Atom   9C    basis set group =>   5
Atom  10C    basis set group =>   5
Atom  11C    basis set group =>   5
Atom  12C    basis set group =>   5
Atom  13C    basis set group =>   5
Atom  14C    basis set group =>   5
Atom  15C    basis set group =>   5
Atom  16C    basis set group =>   5
Atom  17H    basis set group =>   3
Atom  18H    basis set group =>   3
Atom  19H    basis set group =>   3
Atom  20H    basis set group =>   3
Atom  21H    basis set group =>   3
Atom  22C    basis set group =>   5
Atom  23C    basis set group =>   5
Atom  24C    basis set group =>   5
Atom  25C    basis set group =>   5
Atom  26C    basis set group =>   5
Atom  27H    basis set group =>   3
Atom  28H    basis set group =>   3
Atom  29H    basis set group =>   3
Atom  30H    basis set group =>   3
Atom  31H    basis set group =>   3
Atom  32C    basis set group =>   5
Atom  33C    basis set group =>   5
Atom  34C    basis set group =>   5
Atom  35C    basis set group =>   5
Atom  36C    basis set group =>   5
Atom  37H    basis set group =>   3
Atom  38H    basis set group =>   3
Atom  39H    basis set group =>   3
Atom  40H    basis set group =>   3
Atom  41H    basis set group =>   3
Atom  42C    basis set group =>   5
Atom  43C    basis set group =>   5
Atom  44C    basis set group =>   5
Atom  45C    basis set group =>   5
Atom  46C    basis set group =>   5
Atom  47H    basis set group =>   3
Atom  48H    basis set group =>   3
Atom  49H    basis set group =>   3
Atom  50H    basis set group =>   3
Atom  51H    basis set group =>   3
Atom  52C    basis set group =>   5
Atom  53C    basis set group =>   5
Atom  54C    basis set group =>   5
Atom  55C    basis set group =>   5
Atom  56C    basis set group =>   5
Atom  57H    basis set group =>   3
Atom  58H    basis set group =>   3
Atom  59H    basis set group =>   3
Atom  60H    basis set group =>   3
Atom  61H    basis set group =>   3
Atom  62C    basis set group =>   5
Atom  63C    basis set group =>   5
Atom  64C    basis set group =>   5
Atom  65C    basis set group =>   5
Atom  66C    basis set group =>   5
Atom  67H    basis set group =>   3
Atom  68H    basis set group =>   3
Atom  69H    basis set group =>   3
Atom  70H    basis set group =>   3
Atom  71H    basis set group =>   3
----------------------------------
AUXILIARY/JK BASIS SET INFORMATION
----------------------------------
There are 5 groups of distinct atoms

 Group   1 Type Rh  : 13s12p10d9f6g3h2i contracted to 11s10p9d8f6g3h2i pattern {31111111111/3111111111/211111111/21111111/111111/111/11}
 Group   2 Type P   : 16s12p10d4f1g contracted to 13s11p9d4f1g pattern {4111111111111/21111111111/211111111/1111/1}
 Group   3 Type H   : 4s2p2d contracted to 2s2p2d pattern {31/11/11}
 Group   4 Type Cl  : 16s12p10d4f1g contracted to 13s11p9d4f1g pattern {4111111111111/21111111111/211111111/1111/1}
 Group   5 Type C   : 14s10p6d2f1g contracted to 10s8p5d1f1g pattern {5111111111/31111111/21111/2/1}

Atom   0Rh   basis set group =>   1
Atom   1P    basis set group =>   2
Atom   2P    basis set group =>   2
Atom   3H    basis set group =>   3
Atom   4H    basis set group =>   3
Atom   5Cl   basis set group =>   4
Atom   6C    basis set group =>   5
Atom   7C    basis set group =>   5
Atom   8C    basis set group =>   5
Atom   9C    basis set group =>   5
Atom  10C    basis set group =>   5
Atom  11C    basis set group =>   5
Atom  12C    basis set group =>   5
Atom  13C    basis set group =>   5
Atom  14C    basis set group =>   5
Atom  15C    basis set group =>   5
Atom  16C    basis set group =>   5
Atom  17H    basis set group =>   3
Atom  18H    basis set group =>   3
Atom  19H    basis set group =>   3
Atom  20H    basis set group =>   3
Atom  21H    basis set group =>   3
Atom  22C    basis set group =>   5
Atom  23C    basis set group =>   5
Atom  24C    basis set group =>   5
Atom  25C    basis set group =>   5
Atom  26C    basis set group =>   5
Atom  27H    basis set group =>   3
Atom  28H    basis set group =>   3
Atom  29H    basis set group =>   3
Atom  30H    basis set group =>   3
Atom  31H    basis set group =>   3
Atom  32C    basis set group =>   5
Atom  33C    basis set group =>   5
Atom  34C    basis set group =>   5
Atom  35C    basis set group =>   5
Atom  36C    basis set group =>   5
Atom  37H    basis set group =>   3
Atom  38H    basis set group =>   3
Atom  39H    basis set group =>   3
Atom  40H    basis set group =>   3
Atom  41H    basis set group =>   3
Atom  42C    basis set group =>   5
Atom  43C    basis set group =>   5
Atom  44C    basis set group =>   5
Atom  45C    basis set group =>   5
Atom  46C    basis set group =>   5
Atom  47H    basis set group =>   3
Atom  48H    basis set group =>   3
Atom  49H    basis set group =>   3
Atom  50H    basis set group =>   3
Atom  51H    basis set group =>   3
Atom  52C    basis set group =>   5
Atom  53C    basis set group =>   5
Atom  54C    basis set group =>   5
Atom  55C    basis set group =>   5
Atom  56C    basis set group =>   5
Atom  57H    basis set group =>   3
Atom  58H    basis set group =>   3
Atom  59H    basis set group =>   3
Atom  60H    basis set group =>   3
Atom  61H    basis set group =>   3
Atom  62C    basis set group =>   5
Atom  63C    basis set group =>   5
Atom  64C    basis set group =>   5
Atom  65C    basis set group =>   5
Atom  66C    basis set group =>   5
Atom  67H    basis set group =>   3
Atom  68H    basis set group =>   3
Atom  69H    basis set group =>   3
Atom  70H    basis set group =>   3
Atom  71H    basis set group =>   3
-------------------------
ECP PARAMETER INFORMATION
-------------------------

 Group 1, Type Rh ECP Def2-ECP (replacing 28 core electrons, lmax=3)

Atom   0Rh   ECP group =>   1



           ************************************************************
           *        Program running with 24 parallel MPI-processes    *
           *              working on a common directory               *
           ************************************************************
------------------------------------------------------------------------------
                           ORCA GTO INTEGRAL CALCULATION
                           -- RI-GTO INTEGRALS CHOSEN --
------------------------------------------------------------------------------

                         BASIS SET STATISTICS AND STARTUP INFO

Gaussian basis set:
 # of primitive gaussian shells          ... 1191
 # of primitive gaussian functions       ... 2771
 # of contracted shells                  ...  757
 # of contracted basis functions         ... 2079
 Highest angular momentum                ...    4
 Maximum contraction depth               ...    7
Auxiliary gaussian basis set:
 # of primitive gaussian shells          ... 1628
 # of primitive gaussian functions       ... 4824
 # of contracted shells                  ... 1255
 # of contracted aux-basis functions     ... 3915
 Highest angular momentum                ...    6
 Maximum contraction depth               ...    5
Ratio of auxiliary to basis functions    ...  1.88
Integral package used                  ... LIBINT
 One Electron integrals                  
   ECP integrals                         ... done
 Ordering auxiliary basis shells         ... done
 Integral threshhold             Thresh  ...  1.000e-10
 Primitive cut-off               TCut    ...  1.000e-11
 Pre-screening matrix                    ... done
 Shell pair data                         ... 
 Ordering of the shell pairs             ... done (   0.042 sec) 185129 of 286903 pairs
 Determination of significant pairs      ... done (   0.001 sec)
 Creation of shell pair data             ... done (   0.017 sec)
 Storage of shell pair data              ... done (   0.035 sec)
 Shell pair data done in (   0.096 sec)
 Computing two index integrals           ... done
 Cholesky decomposition of the V-matrix  ... done


Timings:
 Total evaluation time                   ...  13.366 sec (  0.223 min)
 One electron matrix time                ...  10.070 sec (  0.168 min) = 75.3%
 Schwartz matrix evaluation time         ...   1.912 sec (  0.032 min) = 14.3%
 Two index repulsion integral time       ...   0.505 sec (  0.008 min) =  3.8%
 Cholesky decomposition of V             ...   0.751 sec (  0.013 min) =  5.6%
 Three index repulsion integral time     ...   0.000 sec (  0.000 min) =  0.0%



           ************************************************************
           *        Program running with 24 parallel MPI-processes    *
           *              working on a common directory               *
           ************************************************************
-------------------------------------------------------------------------------
                                 ORCA SCF
-------------------------------------------------------------------------------

------------
SCF SETTINGS
------------
Hamiltonian:
 Density Functional     Method          .... DFT(GTOs)
 Exchange Functional    Exchange        .... B88
   X-Alpha parameter    XAlpha          ....  0.666667
   Becke's b parameter  XBeta           ....  0.004200
 Correlation Functional Correlation     .... LYP
 LDA part of GGA corr.  LDAOpt          .... VWN-5
 Gradients option       PostSCFGGA      .... off
 Hybrid DFT is turned on
   Fraction HF Exchange ScalHFX         ....  0.710000
   Scaling of DF-GGA-X  ScalDFX         ....  0.290000
   Scaling of DF-GGA-C  ScalDFC         ....  0.540000
   Scaling of DF-LDA-C  ScalLDAC        ....  0.540000
   Perturbative correction              ....  1.000000
   Density functional embedding theory  .... OFF
 RI-approximation to the Coulomb term is turned on
   Number of auxiliary basis functions  .... 3915
   RI-JK (J+K treated both via RI)      .... on


General Settings:
 Integral files         IntName         .... MOR28_pr09
 Hartree-Fock type      HFTyp           .... RHF
 Total Charge           Charge          ....    0
 Multiplicity           Mult            ....    1
 Number of Electrons    NEL             ....  312
 Basis Dimension        Dim             .... 2079
 Nuclear Repulsion      ENuc            ....   5365.2837436785 Eh

Convergence Acceleration:
 DIIS                   CNVDIIS         .... on
   Start iteration      DIISMaxIt       ....    12
   Startup error        DIISStart       ....  0.200000
   # of expansion vecs  DIISMaxEq       ....     5
   Bias factor          DIISBfac        ....   1.050
   Max. coefficient     DIISMaxC        ....  10.000
 Newton-Raphson         CNVNR           .... off
 SOSCF                  CNVSOSCF        .... off
 Level Shifting         CNVShift        .... on
   Level shift para.    LevelShift      ....    0.2500
   Turn off err/grad.   ShiftErr        ....    0.0010
 Zerner damping         CNVZerner       .... off
 Static damping         CNVDamp         .... on
   Fraction old density DampFac         ....    0.7000
   Max. Damping (<1)    DampMax         ....    0.9800
   Min. Damping (>=0)   DampMin         ....    0.0000
   Turn off err/grad.   DampErr         ....    0.1000
 Fernandez-Rico         CNVRico         .... off

SCF Procedure:
 Maximum # iterations   MaxIter         ....   125
 SCF integral mode      SCFMode         .... Direct
   Integral package                     .... LIBINT
 Reset frequency        DirectResetFreq ....    20
 Integral Threshold     Thresh          ....  1.000e-10 Eh
 Primitive CutOff       TCut            ....  1.000e-11 Eh

Convergence Tolerance:
 Convergence Check Mode ConvCheckMode   .... Total+1el-Energy
 Convergence forced     ConvForced      .... 0
 Energy Change          TolE            ....  1.000e-06 Eh
 1-El. energy change                    ....  1.000e-03 Eh
 DIIS Error             TolErr          ....  1.000e-06


Diagonalization of the overlap matrix:
Smallest eigenvalue                        ... 2.955e-07
Time for diagonalization                   ...    0.553 sec
Threshold for overlap eigenvalues          ... 1.000e-08
Number of eigenvalues below threshold      ... 0
Time for construction of square roots      ...    0.627 sec
Total time needed                          ...    1.197 sec

-------------------
DFT GRID GENERATION
-------------------

General Integration Accuracy     IntAcc      ...  4.670
Radial Grid Type                 RadialGrid  ... Gauss-Chebyshev
Angular Grid (max. acc.)         AngularGrid ... Lebedev-302
Angular grid pruning method      GridPruning ... 3 (G Style)
Weight generation scheme         WeightScheme... Becke
Basis function cutoff            BFCut       ...    1.0000e-10
Integration weight cutoff        WCut        ...    1.0000e-14
Grids for H and He will be reduced by one unit

# of grid points (after initial pruning)     ... 363268 (   0.0 sec)
# of grid points (after weights+screening)   ... 308893 (   0.5 sec)
nearest neighbour list constructed           ...    0.0 sec
Grid point re-assignment to atoms done       ...    0.1 sec
Grid point division into batches done        ...    1.0 sec
Reduced shell lists constructed in    3.2 sec

Total number of grid points                  ...   308893
Total number of batches                      ...     4862
Average number of points per batch           ...       63
Average number of grid points per atom       ...     4290
Average number of shells per batch           ...   367.94 (48.60%)
Average number of basis functions per batch  ...   982.58 (47.26%)
Average number of large shells per batch     ...   246.85 (67.09%)
Average number of large basis fcns per batch ...   663.85 (67.56%)
Average number of aux-shells per batch       ...   367.94 (29.32%)
Average number of aux functions per batch    ...   982.58 (25.10%)
Maximum spatial batch extension              ...   2.39,  2.29,  2.72 au
Average spatial batch extension              ...   0.04,  0.04,  0.04 au

Time for grid setup =    4.058 sec

------------------------------
INITIAL GUESS: MODEL POTENTIAL
------------------------------
Loading Hartree-Fock densities                     ... done
  calling /sw/apps/orca/orca_4_2_0_linux_x86-64_openmpi314/orca MOR28_pr09_atom45.inp > MOR28_pr09_atom45.out in order to generate an atomic fitting density for atom 0 (Rh with ECP) on-the-fly... 
    atom 0 (Rh), assumed electronic state with S=4: 1s2 2s2 2p6 3s2 3p6 4s2 3d10 4p6 5s2 4d7           ... done
Calculating cut-offs                               ... done
Setting up the integral package                    ... done
Initializing the effective Hamiltonian             ... done
Starting the Coulomb interaction                   ... done (   1.0 sec)
Reading the grid                                   ... done
Mapping shells                                     ... done
Starting the XC term evaluation                    ... done (   1.9 sec)
  promolecular density results
     # of electrons  =    339.984399097
     EX              =   -401.617538828
     EC              =     -1.638197435
     EX+EC           =   -403.255736263
Transforming the Hamiltonian                       ... done (   0.3 sec)
Diagonalizing the Hamiltonian                      ... done (   0.6 sec)
Back transforming the eigenvectors                 ... done (   0.2 sec)
Now organizing SCF variables                       ... done
                      ------------------
                      INITIAL GUESS DONE (   9.6 sec)
                      ------------------
--------------
SCF ITERATIONS
--------------
ITER       Energy         Delta-E        Max-DP      RMS-DP      [F,P]     Damp
  0  -2637.9490292260   0.000000000000 0.64270664  0.00250693  0.4181084 0.7000
  1  -2637.5203529231   0.428676302881 0.42437558  0.00205069  0.3010368 0.7000
  2  -2637.7735697282  -0.253216805096 0.35789472  0.00149354  0.2041554 0.7000
                               ***Turning on DIIS***
  3  -2638.2484837323  -0.474914004072 0.26673310  0.00105250  0.1394639 0.7000
  4  -2638.6664590984  -0.417975366177 0.77547485  0.00258988  0.0974502 0.0000
  5  -2639.0967798315  -0.430320733079 0.12089499  0.00055924  0.0145697 0.0000
  6  -2639.1035042063  -0.006724374790 0.05864107  0.00033570  0.0128436 0.0000
  7  -2639.1053449191  -0.001840712790 0.07421042  0.00029570  0.0094993 0.0000
  8  -2639.1060495457  -0.000704626573 0.08701221  0.00033711  0.0062475 0.0000
  9  -2639.1062567729  -0.000207227236 0.09733580  0.00023653  0.0014373 0.0000
 10  -2639.1062713799  -0.000014606988 0.07564755  0.00025942  0.0004135 0.0000
 11  -2639.1062740945  -0.000002714571 0.15162541  0.00036772  0.0002548 0.0000
                 **** Energy Check signals convergence ****

               *****************************************************
               *                     SUCCESS                       *
               *           SCF CONVERGED AFTER  12 CYCLES          *
               *****************************************************


----------------
TOTAL SCF ENERGY
----------------

Total Energy       :        -2639.10627455 Eh          -71813.73267 eV

Components:
Nuclear Repulsion  :         5365.28374368 Eh          145996.79300 eV
Electronic Energy  :        -8004.39001823 Eh         -217810.52567 eV
One Electron Energy:       -14342.60803092 Eh         -390282.20609 eV
Two Electron Energy:         6338.21801269 Eh          172471.68042 eV

Virial components:
Potential Energy   :        -5203.09595854 Eh         -141583.43899 eV
Kinetic Energy     :         2563.98968400 Eh           69769.70632 eV
Virial Ratio       :            2.02929676


DFT components:
N(Alpha)           :      155.999765131928 electrons
N(Beta)            :      155.999765131928 electrons
N(Total)           :      311.999530263855 electrons
E(X)               :      -81.814867420469 Eh       
E(C)               :       -5.885003949194 Eh       
E(XC)              :      -87.699871369663 Eh       
DFET-embed. en.    :        0.000000000000 Eh       

---------------
SCF CONVERGENCE
---------------

  Last Energy change         ...   -4.5353e-07  Tolerance :   1.0000e-06
  Last MAX-Density change    ...    8.0604e-02  Tolerance :   1.0000e-05
  Last RMS-Density change    ...    2.3380e-04  Tolerance :   1.0000e-06
  Last DIIS Error            ...    1.4745e-04  Tolerance :   1.0000e-06

             **** THE GBW FILE WAS UPDATED (MOR28_pr09.gbw) ****
             **** DENSITY FILE WAS UPDATED (MOR28_pr09.scfp) ****
             **** ENERGY FILE WAS UPDATED (MOR28_pr09.en.tmp) ****
             **** THE GBW FILE WAS UPDATED (MOR28_pr09.gbw) ****
             **** DENSITY FILE WAS UPDATED (MOR28_pr09.scfp) ****
----------------
ORBITAL ENERGIES
----------------

  NO   OCC          E(Eh)            E(eV) 
   0   2.0000    -103.546406     -2817.6409 
   1   2.0000     -78.938965     -2148.0384 
   2   2.0000     -78.938923     -2148.0373 
   3   2.0000     -10.870509      -295.8016 
   4   2.0000     -10.870370      -295.7978 
   5   2.0000     -10.868847      -295.7564 
   6   2.0000     -10.868598      -295.7496 
   7   2.0000     -10.867575      -295.7217 
   8   2.0000     -10.867313      -295.7146 
   9   2.0000     -10.867232      -295.7124 
  10   2.0000     -10.866955      -295.7049 
  11   2.0000     -10.866900      -295.7034 
  12   2.0000     -10.866824      -295.7013 
  13   2.0000     -10.865314      -295.6602 
  14   2.0000     -10.865276      -295.6592 
  15   2.0000     -10.865138      -295.6554 
  16   2.0000     -10.865040      -295.6528 
  17   2.0000     -10.864450      -295.6367 
  18   2.0000     -10.864299      -295.6326 
  19   2.0000     -10.864247      -295.6312 
  20   2.0000     -10.864080      -295.6266 
  21   2.0000     -10.863977      -295.6239 
  22   2.0000     -10.863750      -295.6177 
  23   2.0000     -10.862767      -295.5909 
  24   2.0000     -10.862563      -295.5854 
  25   2.0000     -10.862313      -295.5786 
  26   2.0000     -10.862186      -295.5751 
  27   2.0000     -10.861912      -295.5677 
  28   2.0000     -10.861651      -295.5605 
  29   2.0000     -10.860909      -295.5404 
  30   2.0000     -10.860665      -295.5337 
  31   2.0000     -10.859343      -295.4978 
  32   2.0000     -10.859250      -295.4952 
  33   2.0000     -10.859010      -295.4887 
  34   2.0000     -10.858837      -295.4840 
  35   2.0000     -10.858458      -295.4737 
  36   2.0000     -10.858151      -295.4653 
  37   2.0000     -10.857931      -295.4593 
  38   2.0000     -10.857536      -295.4486 
  39   2.0000     -10.063191      -273.8334 
  40   2.0000      -7.635293      -207.7669 
  41   2.0000      -7.634402      -207.7426 
  42   2.0000      -7.633857      -207.7278 
  43   2.0000      -7.175104      -195.2445 
  44   2.0000      -7.175049      -195.2430 
  45   2.0000      -5.167005      -140.6013 
  46   2.0000      -5.166950      -140.5999 
  47   2.0000      -5.166934      -140.5994 
  48   2.0000      -5.166881      -140.5980 
  49   2.0000      -5.165262      -140.5539 
  50   2.0000      -5.165206      -140.5524 
  51   2.0000      -3.591437       -97.7280 
  52   2.0000      -2.255828       -61.3842 
  53   2.0000      -2.252480       -61.2931 
  54   2.0000      -2.242133       -61.0115 
  55   2.0000      -1.059931       -28.8422 
  56   2.0000      -1.059764       -28.8376 
  57   2.0000      -1.050037       -28.5730 
  58   2.0000      -1.049954       -28.5707 
  59   2.0000      -1.047087       -28.4927 
  60   2.0000      -1.047020       -28.4908 
  61   2.0000      -0.957256       -26.0483 
  62   2.0000      -0.956344       -26.0234 
  63   2.0000      -0.929015       -25.2798 
  64   2.0000      -0.928876       -25.2760 
  65   2.0000      -0.925309       -25.1789 
  66   2.0000      -0.924969       -25.1697 
  67   2.0000      -0.923430       -25.1278 
  68   2.0000      -0.923125       -25.1195 
  69   2.0000      -0.920277       -25.0420 
  70   2.0000      -0.920159       -25.0388 
  71   2.0000      -0.918233       -24.9864 
  72   2.0000      -0.918170       -24.9847 
  73   2.0000      -0.888615       -24.1804 
  74   2.0000      -0.811450       -22.0807 
  75   2.0000      -0.808538       -22.0014 
  76   2.0000      -0.758947       -20.6520 
  77   2.0000      -0.758593       -20.6424 
  78   2.0000      -0.755164       -20.5491 
  79   2.0000      -0.754666       -20.5355 
  80   2.0000      -0.753126       -20.4936 
  81   2.0000      -0.752791       -20.4845 
  82   2.0000      -0.742995       -20.2179 
  83   2.0000      -0.742959       -20.2169 
  84   2.0000      -0.740583       -20.1523 
  85   2.0000      -0.740518       -20.1505 
  86   2.0000      -0.697394       -18.9771 
  87   2.0000      -0.694095       -18.8873 
  88   2.0000      -0.645412       -17.5626 
  89   2.0000      -0.645005       -17.5515 
  90   2.0000      -0.641374       -17.4527 
  91   2.0000      -0.641125       -17.4459 
  92   2.0000      -0.622730       -16.9453 
  93   2.0000      -0.620171       -16.8757 
  94   2.0000      -0.579474       -15.7683 
  95   2.0000      -0.579390       -15.7660 
  96   2.0000      -0.578313       -15.7367 
  97   2.0000      -0.577298       -15.7091 
  98   2.0000      -0.574553       -15.6344 
  99   2.0000      -0.572917       -15.5899 
 100   2.0000      -0.566874       -15.4254 
 101   2.0000      -0.566688       -15.4204 
 102   2.0000      -0.565993       -15.4015 
 103   2.0000      -0.565791       -15.3960 
 104   2.0000      -0.559490       -15.2245 
 105   2.0000      -0.557861       -15.1802 
 106   2.0000      -0.539489       -14.6802 
 107   2.0000      -0.537779       -14.6337 
 108   2.0000      -0.533450       -14.5159 
 109   2.0000      -0.533224       -14.5098 
 110   2.0000      -0.532570       -14.4920 
 111   2.0000      -0.531872       -14.4730 
 112   2.0000      -0.522237       -14.2108 
 113   2.0000      -0.521982       -14.2039 
 114   2.0000      -0.517661       -14.0863 
 115   2.0000      -0.516973       -14.0675 
 116   2.0000      -0.490999       -13.3608 
 117   2.0000      -0.477828       -13.0024 
 118   2.0000      -0.469070       -12.7641 
 119   2.0000      -0.465843       -12.6762 
 120   2.0000      -0.463446       -12.6110 
 121   2.0000      -0.462849       -12.5947 
 122   2.0000      -0.462617       -12.5885 
 123   2.0000      -0.459951       -12.5159 
 124   2.0000      -0.454732       -12.3739 
 125   2.0000      -0.451302       -12.2806 
 126   2.0000      -0.449804       -12.2398 
 127   2.0000      -0.446521       -12.1505 
 128   2.0000      -0.445813       -12.1312 
 129   2.0000      -0.445271       -12.1164 
 130   2.0000      -0.444376       -12.0921 
 131   2.0000      -0.432620       -11.7722 
 132   2.0000      -0.427259       -11.6263 
 133   2.0000      -0.426194       -11.5973 
 134   2.0000      -0.424806       -11.5596 
 135   2.0000      -0.421381       -11.4663 
 136   2.0000      -0.404324       -11.0022 
 137   2.0000      -0.386381       -10.5140 
 138   2.0000      -0.370815       -10.0904 
 139   2.0000      -0.370249       -10.0750 
 140   2.0000      -0.355272        -9.6674 
 141   2.0000      -0.335633        -9.1330 
 142   2.0000      -0.326952        -8.8968 
 143   2.0000      -0.324192        -8.8217 
 144   2.0000      -0.323407        -8.8004 
 145   2.0000      -0.321679        -8.7533 
 146   2.0000      -0.320785        -8.7290 
 147   2.0000      -0.319394        -8.6912 
 148   2.0000      -0.317577        -8.6417 
 149   2.0000      -0.312670        -8.5082 
 150   2.0000      -0.311450        -8.4750 
 151   2.0000      -0.309292        -8.4163 
 152   2.0000      -0.309180        -8.4132 
 153   2.0000      -0.302612        -8.2345 
 154   2.0000      -0.301632        -8.2078 
 155   2.0000      -0.282591        -7.6897 
 156   0.0000       0.022698         0.6176 
 157   0.0000       0.036124         0.9830 
 158   0.0000       0.038013         1.0344 
 159   0.0000       0.042948         1.1687 
 160   0.0000       0.044122         1.2006 
 161   0.0000       0.044622         1.2142 
 162   0.0000       0.045840         1.2474 
 163   0.0000       0.047412         1.2901 
 164   0.0000       0.047746         1.2992 
 165   0.0000       0.049656         1.3512 
 166   0.0000       0.050328         1.3695 
 167   0.0000       0.053879         1.4661 
 168   0.0000       0.055656         1.5145 
 169   0.0000       0.056863         1.5473 
 170   0.0000       0.062326         1.6960 
 171   0.0000       0.064852         1.7647 
 172   0.0000       0.067941         1.8488 
 173   0.0000       0.068190         1.8556 
 174   0.0000       0.071197         1.9374 
 175   0.0000       0.072438         1.9711 
 176   0.0000       0.073558         2.0016 
 177   0.0000       0.074170         2.0183 
 178   0.0000       0.076306         2.0764 
 179   0.0000       0.078017         2.1229 
 180   0.0000       0.079376         2.1599 
 181   0.0000       0.080046         2.1782 
 182   0.0000       0.082505         2.2451 
 183   0.0000       0.089496         2.4353 
 184   0.0000       0.089954         2.4478 
 185   0.0000       0.092781         2.5247 
 186   0.0000       0.097443         2.6515 
 187   0.0000       0.097628         2.6566 
 188   0.0000       0.101660         2.7663 
 189   0.0000       0.103521         2.8170 
 190   0.0000       0.110238         2.9997 
 191   0.0000       0.110794         3.0149 
 192   0.0000       0.112053         3.0491 
 193   0.0000       0.113687         3.0936 
 194   0.0000       0.119027         3.2389 
 195   0.0000       0.119621         3.2550 
 196   0.0000       0.121727         3.3124 
 197   0.0000       0.123159         3.3513 
 198   0.0000       0.127940         3.4814 
 199   0.0000       0.129119         3.5135 
 200   0.0000       0.133749         3.6395 
 201   0.0000       0.135208         3.6792 
 202   0.0000       0.141985         3.8636 
 203   0.0000       0.145688         3.9644 
 204   0.0000       0.154402         4.2015 
 205   0.0000       0.158629         4.3165 
 206   0.0000       0.159948         4.3524 
 207   0.0000       0.162386         4.4188 
 208   0.0000       0.162723         4.4279 
 209   0.0000       0.165101         4.4926 
 210   0.0000       0.166202         4.5226 
 211   0.0000       0.171095         4.6557 
 212   0.0000       0.172644         4.6979 
 213   0.0000       0.173259         4.7146 
 214   0.0000       0.176669         4.8074 
 215   0.0000       0.177257         4.8234 
 216   0.0000       0.178580         4.8594 
 217   0.0000       0.179714         4.8903 
 218   0.0000       0.180593         4.9142 
 219   0.0000       0.181468         4.9380 
 220   0.0000       0.183807         5.0016 
 221   0.0000       0.185737         5.0542 
 222   0.0000       0.187579         5.1043 
 223   0.0000       0.192818         5.2469 
 224   0.0000       0.195670         5.3244 
 225   0.0000       0.197719         5.3802 
 226   0.0000       0.200001         5.4423 
 227   0.0000       0.202390         5.5073 
 228   0.0000       0.202826         5.5192 
 229   0.0000       0.204259         5.5582 
 230   0.0000       0.208900         5.6844 
 231   0.0000       0.209146         5.6912 
 232   0.0000       0.211860         5.7650 
 233   0.0000       0.212718         5.7884 
 234   0.0000       0.215900         5.8749 
 235   0.0000       0.216676         5.8960 
 236   0.0000       0.218724         5.9518 
 237   0.0000       0.219144         5.9632 
 238   0.0000       0.219951         5.9852 
 239   0.0000       0.222124         6.0443 
 240   0.0000       0.224273         6.1028 
 241   0.0000       0.225723         6.1422 
 242   0.0000       0.226718         6.1693 
 243   0.0000       0.228274         6.2116 
 244   0.0000       0.230454         6.2710 
 245   0.0000       0.230979         6.2853 
 246   0.0000       0.231422         6.2973 
 247   0.0000       0.233278         6.3478 
 248   0.0000       0.235882         6.4187 
 249   0.0000       0.239577         6.5192 
 250   0.0000       0.240840         6.5536 
 251   0.0000       0.242190         6.5903 
 252   0.0000       0.247092         6.7237 
 253   0.0000       0.248945         6.7741 
 254   0.0000       0.249456         6.7880 
 255   0.0000       0.250061         6.8045 
 256   0.0000       0.254413         6.9229 
 257   0.0000       0.255518         6.9530 
 258   0.0000       0.256308         6.9745 
 259   0.0000       0.258090         7.0230 
 260   0.0000       0.258622         7.0375 
 261   0.0000       0.260960         7.1011 
 262   0.0000       0.262335         7.1385 
 263   0.0000       0.264166         7.1883 
 264   0.0000       0.265958         7.2371 
 265   0.0000       0.267784         7.2868 
 266   0.0000       0.268133         7.2963 
 267   0.0000       0.269453         7.3322 
 268   0.0000       0.271688         7.3930 
 269   0.0000       0.271986         7.4011 
 270   0.0000       0.272461         7.4140 
 271   0.0000       0.273696         7.4476 
 272   0.0000       0.275793         7.5047 
 273   0.0000       0.276185         7.5154 
 274   0.0000       0.277141         7.5414 
 275   0.0000       0.277777         7.5587 
 276   0.0000       0.280692         7.6380 
 277   0.0000       0.281715         7.6659 
 278   0.0000       0.282188         7.6787 
 279   0.0000       0.283496         7.7143 
 280   0.0000       0.284930         7.7533 
 281   0.0000       0.286138         7.7862 
 282   0.0000       0.288721         7.8565 
 283   0.0000       0.290024         7.8920 
 284   0.0000       0.292046         7.9470 
 285   0.0000       0.293650         7.9906 
 286   0.0000       0.297803         8.1036 
 287   0.0000       0.298773         8.1300 
 288   0.0000       0.300494         8.1769 
 289   0.0000       0.301829         8.2132 
 290   0.0000       0.302111         8.2209 
 291   0.0000       0.302947         8.2436 
 292   0.0000       0.305054         8.3009 
 293   0.0000       0.306757         8.3473 
 294   0.0000       0.309102         8.4111 
 295   0.0000       0.310156         8.4398 
 296   0.0000       0.310936         8.4610 
 297   0.0000       0.311459         8.4752 
 298   0.0000       0.316319         8.6075 
 299   0.0000       0.318486         8.6665 
 300   0.0000       0.319930         8.7057 
 301   0.0000       0.321389         8.7454 
 302   0.0000       0.323270         8.7966 
 303   0.0000       0.323983         8.8160 
 304   0.0000       0.326305         8.8792 
 305   0.0000       0.327191         8.9033 
 306   0.0000       0.327927         8.9234 
 307   0.0000       0.329788         8.9740 
 308   0.0000       0.330478         8.9928 
 309   0.0000       0.330988         9.0066 
 310   0.0000       0.333255         9.0683 
 311   0.0000       0.335986         9.1427 
 312   0.0000       0.337703         9.1894 
 313   0.0000       0.339478         9.2377 
 314   0.0000       0.339888         9.2488 
 315   0.0000       0.341357         9.2888 
 316   0.0000       0.342847         9.3293 
 317   0.0000       0.343366         9.3435 
 318   0.0000       0.344814         9.3829 
 319   0.0000       0.346083         9.4174 
 320   0.0000       0.348764         9.4904 
 321   0.0000       0.350677         9.5424 
 322   0.0000       0.351464         9.5638 
 323   0.0000       0.353846         9.6286 
 324   0.0000       0.354619         9.6497 
 325   0.0000       0.354964         9.6591 
 326   0.0000       0.358664         9.7598 
 327   0.0000       0.359340         9.7781 
 328   0.0000       0.359980         9.7956 
 329   0.0000       0.360179         9.8010 
 330   0.0000       0.363406         9.8888 
 331   0.0000       0.363978         9.9043 
 332   0.0000       0.364556         9.9201 
 333   0.0000       0.366019         9.9599 
 334   0.0000       0.367905        10.0112 
 335   0.0000       0.368068        10.0156 
 336   0.0000       0.369351        10.0506 
 337   0.0000       0.372880        10.1466 
 338   0.0000       0.375036        10.2053 
 339   0.0000       0.375955        10.2303 
 340   0.0000       0.376647        10.2491 
 341   0.0000       0.379604        10.3295 
 342   0.0000       0.380274        10.3478 
 343   0.0000       0.381622        10.3845 
 344   0.0000       0.382043        10.3959 
 345   0.0000       0.382713        10.4141 
 346   0.0000       0.383422        10.4334 
 347   0.0000       0.386216        10.5095 
 348   0.0000       0.386918        10.5286 
 349   0.0000       0.387167        10.5354 
 350   0.0000       0.389962        10.6114 
 351   0.0000       0.392727        10.6867 
 352   0.0000       0.394282        10.7290 
 353   0.0000       0.395488        10.7618 
 354   0.0000       0.396837        10.7985 
 355   0.0000       0.399014        10.8577 
 356   0.0000       0.401942        10.9374 
 357   0.0000       0.403086        10.9685 
 358   0.0000       0.404012        10.9937 
 359   0.0000       0.405257        11.0276 
 360   0.0000       0.406789        11.0693 
 361   0.0000       0.408194        11.1075 
 362   0.0000       0.410103        11.1595 
 363   0.0000       0.411358        11.1936 
 364   0.0000       0.412337        11.2203 
 365   0.0000       0.413144        11.2422 
 366   0.0000       0.415963        11.3189 
 367   0.0000       0.417968        11.3735 
 368   0.0000       0.418742        11.3946 
 369   0.0000       0.420011        11.4291 
 370   0.0000       0.421089        11.4584 
 371   0.0000       0.422240        11.4897 
 372   0.0000       0.423758        11.5310 
 373   0.0000       0.424949        11.5635 
 374   0.0000       0.425463        11.5774 
 375   0.0000       0.426437        11.6039 
 376   0.0000       0.426793        11.6136 
 377   0.0000       0.430398        11.7117 
 378   0.0000       0.431619        11.7450 
 379   0.0000       0.432468        11.7680 
 380   0.0000       0.432700        11.7744 
 381   0.0000       0.433962        11.8087 
 382   0.0000       0.438642        11.9361 
 383   0.0000       0.439792        11.9673 
 384   0.0000       0.440245        11.9797 
 385   0.0000       0.443419        12.0661 
 386   0.0000       0.444979        12.1085 
 387   0.0000       0.445606        12.1256 
 388   0.0000       0.447320        12.1722 
 389   0.0000       0.448993        12.2177 
 390   0.0000       0.449985        12.2447 
 391   0.0000       0.450520        12.2593 
 392   0.0000       0.451245        12.2790 
 393   0.0000       0.452951        12.3254 
 394   0.0000       0.453394        12.3375 
 395   0.0000       0.453876        12.3506 
 396   0.0000       0.455931        12.4065 
 397   0.0000       0.456791        12.4299 
 398   0.0000       0.460628        12.5343 
 399   0.0000       0.461289        12.5523 
 400   0.0000       0.462265        12.5789 
 401   0.0000       0.462938        12.5972 
 402   0.0000       0.464025        12.6268 
 403   0.0000       0.465251        12.6601 
 404   0.0000       0.466420        12.6919 
 405   0.0000       0.469926        12.7873 
 406   0.0000       0.472433        12.8556 
 407   0.0000       0.473038        12.8720 
 408   0.0000       0.476889        12.9768 
 409   0.0000       0.480471        13.0743 
 410   0.0000       0.481918        13.1137 
 411   0.0000       0.482387        13.1264 
 412   0.0000       0.484457        13.1828 
 413   0.0000       0.485311        13.2060 
 414   0.0000       0.487845        13.2750 
 415   0.0000       0.490237        13.3400 
 416   0.0000       0.491086        13.3631 
 417   0.0000       0.491662        13.3788 
 418   0.0000       0.492822        13.4104 
 419   0.0000       0.493188        13.4203 
 420   0.0000       0.494621        13.4593 
 421   0.0000       0.495887        13.4938 
 422   0.0000       0.499043        13.5797 
 423   0.0000       0.500263        13.6129 
 424   0.0000       0.502194        13.6654 
 425   0.0000       0.504241        13.7211 
 426   0.0000       0.505107        13.7447 
 427   0.0000       0.507938        13.8217 
 428   0.0000       0.509801        13.8724 
 429   0.0000       0.511235        13.9114 
 430   0.0000       0.512340        13.9415 
 431   0.0000       0.513493        13.9728 
 432   0.0000       0.514709        14.0059 
 433   0.0000       0.515844        14.0368 
 434   0.0000       0.517658        14.0862 
 435   0.0000       0.519690        14.1415 
 436   0.0000       0.521093        14.1797 
 437   0.0000       0.522118        14.2076 
 438   0.0000       0.523391        14.2422 
 439   0.0000       0.525637        14.3033 
 440   0.0000       0.526979        14.3398 
 441   0.0000       0.527503        14.3541 
 442   0.0000       0.531230        14.4555 
 443   0.0000       0.533147        14.5077 
 444   0.0000       0.534183        14.5359 
 445   0.0000       0.534606        14.5474 
 446   0.0000       0.537864        14.6360 
 447   0.0000       0.538714        14.6591 
 448   0.0000       0.540329        14.7031 
 449   0.0000       0.541276        14.7289 
 450   0.0000       0.544001        14.8030 
 451   0.0000       0.544804        14.8249 
 452   0.0000       0.546666        14.8755 
 453   0.0000       0.549920        14.9641 
 454   0.0000       0.550007        14.9664 
 455   0.0000       0.552608        15.0372 
 456   0.0000       0.553927        15.0731 
 457   0.0000       0.556167        15.1341 
 458   0.0000       0.558542        15.1987 
 459   0.0000       0.560370        15.2484 
 460   0.0000       0.562300        15.3010 
 461   0.0000       0.563320        15.3287 
 462   0.0000       0.565341        15.3837 
 463   0.0000       0.566558        15.4168 
 464   0.0000       0.570450        15.5227 
 465   0.0000       0.573713        15.6115 
 466   0.0000       0.575161        15.6509 
 467   0.0000       0.577588        15.7170 
 468   0.0000       0.579357        15.7651 
 469   0.0000       0.579929        15.7807 
 470   0.0000       0.581872        15.8335 
 471   0.0000       0.582223        15.8431 
 472   0.0000       0.584829        15.9140 
 473   0.0000       0.587089        15.9755 
 474   0.0000       0.588163        16.0047 
 475   0.0000       0.589616        16.0443 
 476   0.0000       0.590134        16.0583 
 477   0.0000       0.591241        16.0885 
 478   0.0000       0.593934        16.1618 
 479   0.0000       0.594488        16.1768 
 480   0.0000       0.595790        16.2123 
 481   0.0000       0.598097        16.2750 
 482   0.0000       0.599306        16.3079 
 483   0.0000       0.600142        16.3307 
 484   0.0000       0.603287        16.4163 
 485   0.0000       0.604432        16.4474 
 486   0.0000       0.607578        16.5331 
 487   0.0000       0.608237        16.5510 
 488   0.0000       0.608403        16.5555 
 489   0.0000       0.609344        16.5811 
 490   0.0000       0.612161        16.6577 
 491   0.0000       0.614108        16.7107 
 492   0.0000       0.615993        16.7620 
 493   0.0000       0.618354        16.8263 
 494   0.0000       0.620353        16.8807 
 495   0.0000       0.620774        16.8921 
 496   0.0000       0.623431        16.9644 
 497   0.0000       0.624106        16.9828 
 498   0.0000       0.626724        17.0540 
 499   0.0000       0.627872        17.0853 
 500   0.0000       0.630096        17.1458 
 501   0.0000       0.633755        17.2453 
 502   0.0000       0.635947        17.3050 
 503   0.0000       0.639536        17.4027 
 504   0.0000       0.640595        17.4315 
 505   0.0000       0.643606        17.5134 
 506   0.0000       0.644123        17.5275 
 507   0.0000       0.645115        17.5545 
 508   0.0000       0.647954        17.6317 
 509   0.0000       0.648862        17.6564 
 510   0.0000       0.651174        17.7193 
 511   0.0000       0.654834        17.8189 
 512   0.0000       0.656514        17.8647 
 513   0.0000       0.657299        17.8860 
 514   0.0000       0.657961        17.9040 
 515   0.0000       0.659956        17.9583 
 516   0.0000       0.660050        17.9609 
 517   0.0000       0.663692        18.0600 
 518   0.0000       0.665073        18.0976 
 519   0.0000       0.666776        18.1439 
 520   0.0000       0.668853        18.2004 
 521   0.0000       0.669126        18.2079 
 522   0.0000       0.671745        18.2791 
 523   0.0000       0.673483        18.3264 
 524   0.0000       0.673940        18.3388 
 525   0.0000       0.674568        18.3559 
 526   0.0000       0.675406        18.3787 
 527   0.0000       0.676324        18.4037 
 528   0.0000       0.677239        18.4286 
 529   0.0000       0.679843        18.4995 
 530   0.0000       0.680403        18.5147 
 531   0.0000       0.682175        18.5629 
 532   0.0000       0.684668        18.6308 
 533   0.0000       0.685986        18.6666 
 534   0.0000       0.687557        18.7094 
 535   0.0000       0.690760        18.7965 
 536   0.0000       0.692273        18.8377 
 537   0.0000       0.693026        18.8582 
 538   0.0000       0.695688        18.9306 
 539   0.0000       0.697004        18.9664 
 540   0.0000       0.698984        19.0203 
 541   0.0000       0.699715        19.0402 
 542   0.0000       0.702538        19.1170 
 543   0.0000       0.703868        19.1532 
 544   0.0000       0.705584        19.1999 
 545   0.0000       0.707449        19.2507 
 546   0.0000       0.708523        19.2799 
 547   0.0000       0.709417        19.3042 
 548   0.0000       0.711162        19.3517 
 549   0.0000       0.712450        19.3867 
 550   0.0000       0.713933        19.4271 
 551   0.0000       0.716108        19.4863 
 552   0.0000       0.716971        19.5098 
 553   0.0000       0.718798        19.5595 
 554   0.0000       0.721275        19.6269 
 555   0.0000       0.723472        19.6867 
 556   0.0000       0.724345        19.7104 
 557   0.0000       0.725581        19.7441 
 558   0.0000       0.726315        19.7640 
 559   0.0000       0.729324        19.8459 
 560   0.0000       0.731261        19.8986 
 561   0.0000       0.733093        19.9485 
 562   0.0000       0.734715        19.9926 
 563   0.0000       0.736472        20.0404 
 564   0.0000       0.738554        20.0971 
 565   0.0000       0.739941        20.1348 
 566   0.0000       0.741085        20.1660 
 567   0.0000       0.743248        20.2248 
 568   0.0000       0.744282        20.2529 
 569   0.0000       0.745239        20.2790 
 570   0.0000       0.747118        20.3301 
 571   0.0000       0.747945        20.3526 
 572   0.0000       0.749509        20.3952 
 573   0.0000       0.750964        20.4348 
 574   0.0000       0.752407        20.4740 
 575   0.0000       0.753066        20.4920 
 576   0.0000       0.756694        20.5907 
 577   0.0000       0.757855        20.6223 
 578   0.0000       0.759135        20.6571 
 579   0.0000       0.760279        20.6882 
 580   0.0000       0.760739        20.7008 
 581   0.0000       0.764362        20.7993 
 582   0.0000       0.765729        20.8365 
 583   0.0000       0.765957        20.8427 
 584   0.0000       0.766752        20.8644 
 585   0.0000       0.768039        20.8994 
 586   0.0000       0.769225        20.9317 
 587   0.0000       0.770851        20.9759 
 588   0.0000       0.771407        20.9911 
 589   0.0000       0.774651        21.0793 
 590   0.0000       0.775203        21.0943 
 591   0.0000       0.776244        21.1227 
[...]
  6 C      5.8133     6.0000     0.1867     3.0102     3.0102    -0.0000
  7 C      5.7276     6.0000     0.2724     2.8891     2.8891    -0.0000
  8 C      5.6847     6.0000     0.3153     2.9687     2.9687     0.0000
  9 C      5.7475     6.0000     0.2525     2.9133     2.9133    -0.0000
 10 C      5.7157     6.0000     0.2843     3.1128     3.1128    -0.0000
 11 C      5.7337     6.0000     0.2663     2.7605     2.7605     0.0000
 12 C      5.6460     6.0000     0.3540     2.8534     2.8534    -0.0000
 13 C      6.3313     6.0000    -0.3313     3.0744     3.0744     0.0000
 14 C      5.8517     6.0000     0.1483     2.9419     2.9419    -0.0000
 15 C      6.4205     6.0000    -0.4205     3.1069     3.1069     0.0000
 16 C      6.0215     6.0000    -0.0215     3.2192     3.2192    -0.0000
 17 H      0.9992     1.0000     0.0008     0.7755     0.7755     0.0000
 18 H      1.0869     1.0000    -0.0869     0.9528     0.9528     0.0000
 19 H      1.0508     1.0000    -0.0508     0.8959     0.8959    -0.0000
 20 H      1.0745     1.0000    -0.0745     0.9454     0.9454     0.0000
 21 H      1.0428     1.0000    -0.0428     0.7918     0.7918    -0.0000
 22 C      5.9884     6.0000     0.0116     3.5987     3.5987     0.0000
 23 C      6.3765     6.0000    -0.3765     3.0582     3.0582    -0.0000
 24 C      5.8588     6.0000     0.1412     3.0014     3.0014    -0.0000
 25 C      6.3075     6.0000    -0.3075     3.1398     3.1398     0.0000
 26 C      5.7829     6.0000     0.2171     2.7775     2.7775     0.0000
 27 H      1.1475     1.0000    -0.1475     0.8325     0.8325     0.0000
 28 H      1.0913     1.0000    -0.0913     0.9460     0.9460     0.0000
 29 H      1.0543     1.0000    -0.0543     0.9031     0.9031    -0.0000
 30 H      1.0957     1.0000    -0.0957     0.9502     0.9502    -0.0000
 31 H      1.0091     1.0000    -0.0091     0.8082     0.8082     0.0000
 32 C      6.0671     6.0000    -0.0671     3.4272     3.4272    -0.0000
 33 C      6.4194     6.0000    -0.4194     3.0768     3.0768     0.0000
 34 C      5.8710     6.0000     0.1290     2.9433     2.9433    -0.0000
 35 C      6.3078     6.0000    -0.3078     3.1231     3.1231    -0.0000
 36 C      5.6971     6.0000     0.3029     2.6074     2.6074     0.0000
 37 H      0.8630     1.0000     0.1370     0.6393     0.6393     0.0000
 38 H      1.0735     1.0000    -0.0735     0.9574     0.9574     0.0000
 39 H      1.0526     1.0000    -0.0526     0.8991     0.8991     0.0000
 40 H      1.0875     1.0000    -0.0875     0.9488     0.9488     0.0000
 41 H      1.0177     1.0000    -0.0177     0.8115     0.8115    -0.0000
 42 C      5.6501     6.0000     0.3499     2.7987     2.7987    -0.0000
 43 C      6.3215     6.0000    -0.3215     3.0946     3.0946     0.0000
 44 C      5.8568     6.0000     0.1432     2.9687     2.9687    -0.0000
 45 C      6.4246     6.0000    -0.4246     3.0894     3.0894    -0.0000
 46 C      5.9938     6.0000     0.0062     3.2434     3.2434     0.0000
 47 H      1.0034     1.0000    -0.0034     0.7933     0.7933    -0.0000
 48 H      1.0888     1.0000    -0.0888     0.9546     0.9546     0.0000
 49 H      1.0522     1.0000    -0.0522     0.8990     0.8990    -0.0000
 50 H      1.0744     1.0000    -0.0744     0.9456     0.9456    -0.0000
 51 H      1.0873     1.0000    -0.0873     0.8570     0.8570    -0.0000
 52 C      5.6961     6.0000     0.3039     2.5502     2.5502     0.0000
 53 C      6.3128     6.0000    -0.3128     3.1183     3.1183    -0.0000
 54 C      5.8681     6.0000     0.1319     2.9413     2.9413    -0.0000
 55 C      6.3746     6.0000    -0.3746     3.0992     3.0992    -0.0000
 56 C      6.0991     6.0000    -0.0991     3.3399     3.3399     0.0000
 57 H      1.0039     1.0000    -0.0039     0.7996     0.7996     0.0000
 58 H      1.0884     1.0000    -0.0884     0.9505     0.9505     0.0000
 59 H      1.0497     1.0000    -0.0497     0.8994     0.8994    -0.0000
 60 H      1.0760     1.0000    -0.0760     0.9595     0.9595    -0.0000
 61 H      0.8443     1.0000     0.1557     0.5972     0.5972     0.0000
 62 C      5.9886     6.0000     0.0114     3.5812     3.5812    -0.0000
 63 C      6.3797     6.0000    -0.3797     3.0288     3.0288     0.0000
 64 C      5.8626     6.0000     0.1374     2.9882     2.9882     0.0000
 65 C      6.3218     6.0000    -0.3218     3.1286     3.1286     0.0000
 66 C      5.7964     6.0000     0.2036     2.8195     2.8195     0.0000
 67 H      1.1121     1.0000    -0.1121     0.7889     0.7889    -0.0000
 68 H      1.0887     1.0000    -0.0887     0.9455     0.9455     0.0000
 69 H      1.0535     1.0000    -0.0535     0.9004     0.9004    -0.0000
 70 H      1.0933     1.0000    -0.0933     0.9482     0.9482     0.0000
 71 H      1.0148     1.0000    -0.0148     0.8043     0.8043     0.0000

  Mayer bond orders larger than 0.100000
B(  0-Rh,  1-P ) :   0.5072 B(  0-Rh,  2-P ) :   0.4485 B(  0-Rh,  3-H ) :   1.0880 
B(  0-Rh,  4-H ) :   1.0792 B(  0-Rh,  5-Cl) :   0.7268 B(  0-Rh,  8-C ) :   0.1012 
B(  0-Rh,  9-C ) :   0.1024 B(  0-Rh, 10-C ) :   0.1022 B(  0-Rh, 16-C ) :   0.1258 
B(  0-Rh, 22-C ) :   0.1059 B(  0-Rh, 46-C ) :   0.1159 B(  0-Rh, 62-C ) :   0.1275 
B(  0-Rh, 66-C ) :  -0.1072 B(  1-P ,  2-P ) :   0.3421 B(  1-P ,  3-H ) :  -0.1935 
B(  1-P ,  5-Cl) :  -0.2998 B(  1-P ,  9-C ) :   0.5009 B(  1-P , 10-C ) :   0.5762 
B(  1-P , 11-C ) :   0.4325 B(  1-P , 65-C ) :  -0.1117 B(  2-P ,  3-H ) :  -0.1039 
B(  2-P ,  4-H ) :  -0.2157 B(  2-P ,  5-Cl) :  -0.3030 B(  2-P ,  6-C ) :   0.4804 
B(  2-P ,  7-C ) :   0.4985 B(  2-P ,  8-C ) :   0.5495 B(  2-P , 25-C ) :  -0.1120 
B(  2-P , 35-C ) :  -0.1070 B(  2-P , 36-C ) :   0.1309 B(  3-H ,  4-H ) :   0.1037 
B(  5-Cl, 22-C ) :   0.1727 B(  5-Cl, 61-H ) :  -0.1130 B(  5-Cl, 62-C ) :   0.1627 
B(  6-C ,  7-C ) :   0.4055 B(  6-C ,  8-C ) :   0.3097 B(  6-C , 12-C ) :   1.0859 
B(  6-C , 16-C ) :   1.1779 B(  6-C , 21-H ) :  -0.1220 B(  6-C , 32-C ) :  -0.1649 
B(  7-C ,  8-C ) :   0.3379 B(  7-C , 12-C ) :  -0.1039 B(  7-C , 32-C ) :   1.2150 
B(  7-C , 33-C ) :  -0.1528 B(  7-C , 35-C ) :  -0.1349 B(  7-C , 36-C ) :   0.8573 
B(  8-C , 16-C ) :  -0.1702 B(  8-C , 22-C ) :   1.2280 B(  8-C , 25-C ) :  -0.1021 
B(  8-C , 26-C ) :   0.9799 B(  9-C , 10-C ) :   0.3779 B(  9-C , 11-C ) :   0.4229 
B(  9-C , 42-C ) :  -0.1122 B(  9-C , 52-C ) :   0.8438 B(  9-C , 53-C ) :  -0.1475 
B(  9-C , 55-C ) :  -0.1466 B(  9-C , 56-C ) :   1.1920 B( 10-C , 11-C ) :   0.2932 
B( 10-C , 46-C ) :  -0.1684 B( 10-C , 62-C ) :   1.2822 B( 10-C , 66-C ) :   1.0004 
B( 11-C , 42-C ) :   1.0182 B( 11-C , 46-C ) :   1.1714 B( 11-C , 51-H ) :  -0.1210 
B( 11-C , 56-C ) :  -0.1641 B( 12-C , 13-C ) :   1.0361 B( 12-C , 16-C ) :  -0.1426 
B( 12-C , 17-H ) :   1.0307 B( 12-C , 18-H ) :  -0.1045 B( 12-C , 32-C ) :   0.1265 
B( 13-C , 14-C ) :   1.0553 B( 13-C , 15-C ) :   0.1358 B( 13-C , 17-H ) :  -0.1771 
B( 13-C , 18-H ) :   1.1940 B( 13-C , 19-H ) :  -0.1360 B( 14-C , 15-C ) :   1.0450 
B( 14-C , 18-H ) :  -0.1412 B( 14-C , 19-H ) :   1.1555 B( 14-C , 20-H ) :  -0.1395 
B( 15-C , 16-C ) :   1.1248 B( 15-C , 19-H ) :  -0.1300 B( 15-C , 20-H ) :   1.1831 
B( 15-C , 21-H ) :  -0.1442 B( 16-C , 20-H ) :  -0.1035 B( 16-C , 21-H ) :   1.0007 
B( 16-C , 26-C ) :   0.1512 B( 22-C , 23-C ) :   1.1178 B( 22-C , 25-C ) :   0.1130 
B( 22-C , 26-C ) :  -0.1166 B( 22-C , 27-H ) :   1.0188 B( 23-C , 24-C ) :   1.0821 
B( 23-C , 27-H ) :  -0.1808 B( 23-C , 28-H ) :   1.1837 B( 23-C , 29-H ) :  -0.1261 
B( 24-C , 25-C ) :   1.1277 B( 24-C , 28-H ) :  -0.1425 B( 24-C , 29-H ) :   1.1496 
B( 24-C , 30-H ) :  -0.1392 B( 25-C , 26-C ) :   1.0485 B( 25-C , 29-H ) :  -0.1235 
B( 25-C , 30-H ) :   1.1898 B( 25-C , 31-H ) :  -0.1709 B( 25-C , 36-C ) :   0.1129 
B( 26-C , 31-H ) :   1.0643 B( 26-C , 36-C ) :  -0.2070 B( 32-C , 33-C ) :   1.2365 
B( 32-C , 35-C ) :   0.1437 B( 32-C , 36-C ) :  -0.1604 B( 32-C , 37-H ) :   0.9487 
B( 32-C , 38-H ) :  -0.1072 B( 33-C , 34-C ) :   1.0243 B( 33-C , 37-H ) :  -0.1852 
B( 33-C , 38-H ) :   1.2021 B( 33-C , 39-H ) :  -0.1317 B( 34-C , 35-C ) :   1.0707 
B( 34-C , 38-H ) :  -0.1451 B( 34-C , 39-H ) :   1.1578 B( 34-C , 40-H ) :  -0.1469 
B( 35-C , 36-C ) :   1.1048 B( 35-C , 39-H ) :  -0.1302 B( 35-C , 40-H ) :   1.1913 
B( 35-C , 41-H ) :  -0.1925 B( 36-C , 41-H ) :   1.0365 B( 42-C , 43-C ) :   1.0547 
B( 42-C , 46-C ) :  -0.1285 B( 42-C , 47-H ) :   1.0387 B( 42-C , 48-H ) :  -0.1061 
B( 42-C , 56-C ) :   0.1223 B( 43-C , 44-C ) :   1.0684 B( 43-C , 45-C ) :   0.1261 
B( 43-C , 47-H ) :  -0.1792 B( 43-C , 48-H ) :   1.1978 B( 43-C , 49-H ) :  -0.1348 
B( 44-C , 45-C ) :   1.0593 B( 44-C , 48-H ) :  -0.1410 B( 44-C , 49-H ) :   1.1554 
B( 44-C , 50-H ) :  -0.1393 B( 45-C , 46-C ) :   1.1297 B( 45-C , 49-H ) :  -0.1288 
B( 45-C , 50-H ) :   1.1842 B( 45-C , 51-H ) :  -0.1525 B( 46-C , 50-H ) :  -0.1001 
B( 46-C , 51-H ) :   1.0152 B( 46-C , 66-C ) :   0.1679 B( 52-C , 53-C ) :   1.1051 
B( 52-C , 56-C ) :  -0.1607 B( 52-C , 57-H ) :   1.0229 B( 52-C , 62-C ) :   0.1155 
B( 52-C , 66-C ) :  -0.2010 B( 53-C , 54-C ) :   1.0743 B( 53-C , 56-C ) :   0.1459 
B( 53-C , 57-H ) :  -0.1922 B( 53-C , 58-H ) :   1.1936 B( 53-C , 59-H ) :  -0.1298 
B( 54-C , 55-C ) :   1.0269 B( 54-C , 58-H ) :  -0.1479 B( 54-C , 59-H ) :   1.1534 
B( 54-C , 60-H ) :  -0.1476 B( 55-C , 56-C ) :   1.2544 B( 55-C , 59-H ) :  -0.1280 
B( 55-C , 60-H ) :   1.1988 B( 55-C , 61-H ) :  -0.1917 B( 56-C , 60-H ) :  -0.1000 
B( 56-C , 61-H ) :   0.9320 B( 62-C , 63-C ) :   1.1173 B( 62-C , 65-C ) :   0.1224 
B( 62-C , 66-C ) :  -0.1283 B( 62-C , 67-H ) :   0.9899 B( 63-C , 64-C ) :   1.0756 
B( 63-C , 65-C ) :   0.1090 B( 63-C , 67-H ) :  -0.1798 B( 63-C , 68-H ) :   1.1855 
B( 63-C , 69-H ) :  -0.1294 B( 64-C , 65-C ) :   1.1184 B( 64-C , 68-H ) :  -0.1397 
B( 64-C , 69-H ) :   1.1508 B( 64-C , 70-H ) :  -0.1430 B( 65-C , 66-C ) :   1.0315 
B( 65-C , 69-H ) :  -0.1247 B( 65-C , 70-H ) :   1.1909 B( 65-C , 71-H ) :  -0.1713 
B( 66-C , 71-H ) :   1.0601 

-------
TIMINGS
-------

Total SCF time: 0 days 0 hours 20 min 43 sec 

Total time                  ....    1243.224 sec
Sum of individual times     ....    1238.153 sec  ( 99.6%)

Fock matrix formation       ....    1200.518 sec  ( 96.6%)
  XC integration            ....      29.257 sec  (  2.4% of F)
    Basis function eval.    ....       4.750 sec  ( 16.2% of XC)
    Density eval.           ....      13.226 sec  ( 45.2% of XC)
    XC-Functional eval.     ....       0.146 sec  (  0.5% of XC)
    XC-Potential eval.      ....       8.082 sec  ( 27.6% of XC)
Diagonalization             ....      10.261 sec  (  0.8%)
Density matrix formation    ....       0.759 sec  (  0.1%)
Population analysis         ....       1.820 sec  (  0.1%)
Initial guess               ....       5.500 sec  (  0.4%)
Orbital Transformation      ....       0.000 sec  (  0.0%)
Orbital Orthonormalization  ....       0.000 sec  (  0.0%)
DIIS solution               ....      15.236 sec  (  1.2%)
Grid generation             ....       4.058 sec  (  0.3%)


           ************************************************************
           *        Program running with 24 parallel MPI-processes    *
           *              working on a common directory               *
           ************************************************************

------------------------------------------------------------------------------
                                ORCA  MP2 
------------------------------------------------------------------------------

Freezing NCore=102 chemical core electrons

-------------
RI-MP2 ENERGY
-------------
Dimension of the basis                    ... 2079
Memory devoted to MP2                     ... 5000 MB   
Data format for buffers                   ... DOUBLE
Compression type for matrix containers    ... UNCOMPRESSED
Scaling for aa/bb pairs                   ...   4.000e-01
Scaling for ab pairs                      ...   4.700e-01
Overall scaling of the MP2 energy         ...   1.000e+00
Calculating two index integrals           ... done (    0.178 sec)
Cholesky decomposition of V**-1           ... done (    3.383 sec)

-----------------
RI-TRANSFORMATION (AUX index driven)
-----------------

Dimension of the orbital-basis         ... 2079
Dimension of the aux-basis             ... 5153
Transformation of internal/external MOs...   51- 155 to  156-2078
Number Format for Storage              ... Double (8 Byte)
Integral mode                          ... Direct

First Phase: integral generation and transformation of MO indices
  Aux angular momentum 0               ... done (    2.715 sec)
  Aux angular momentum 1               ... done (    5.542 sec)
  Aux angular momentum 2               ... done (    6.618 sec)
  Aux angular momentum 3               ... done (    6.099 sec)
  Aux angular momentum 4               ... done (    1.634 sec)
  Aux angular momentum 5               ... done (    1.020 sec)
  Aux angular momentum 6               ... done (    1.297 sec)
Closing buffer VIA ( 7.75 GB; CompressionRatio= 1.00)
  Phase 1 completed in    25.301 sec
Second Phase: sorting and transformation of aux index

IA-Transformation
Memory available                       ... 4452 MB 
Max. # MO pairs treated in a batch     ... 5    
# of internal orbitals                 ... 105
# batches for internal orbitals        ... 1
Closing buffer IAV ( 0.37 GB; CompressionRatio= 1.00)
(ia|v) transformation done in    11.580 sec

  Phase 2 completed in    28.515 sec
RI-Integral transformation completed in    53.955 sec
Opening buffers                              ... done

Starting loop over batches of integrals:

Operator 0  - window                       ... ( 51-155)x(156-2078)
Operator 0  - Memory available             ...  5000 MB
Operator 0  - Memory needed per MO         ...  75.6 MB
Operator 0  - Number of orbitals per batch ... 5
Operator 0  - Number of batches            ... 1

OPERATOR  0   PASS   0:  MOs    51 ...   55 +   56 ...   60 +   61 ...   65 +   66 ...   70
                            +   71 ...   75 +   76 ...   80 +   81 ...   85 +   86 ...   90
                            +   91 ...   95 +   96 ...  100 +  101 ...  105 +  106 ...  110
                            +  111 ...  115 +  116 ...  120 +  121 ...  125 +  126 ...  130
                            +  131 ...  135 +  136 ...  140 +  141 ...  145 +  146 ...  150
                            +  151 ...  155
  Reading integrals       ... ok
  Internal MO  53
Time spent in pair loops =    11.282 sec
Deleting buffer (Ka|jb)[aa] ...done

-----------------------------------------------
 RI-MP2 CORRELATION ENERGY:     -3.567777253 Eh
-----------------------------------------------


-------
TIMINGS
-------

Total time                :  390.237 sec
Integral trafo            :   53.985 sec ( 13.8%)
I/O of integrals          :    0.443 sec (  0.1%)
K(i,j) Operators          :    9.462 sec (  2.4%)
T(i,j) pair energies      :    0.883 sec (  0.2%)
V-calculation             :    0.178 sec (  0.0%)
V**(-1/2)                 :    3.383 sec (  0.9%)
Gamma(ia|P)               :    0.000 sec (  0.0%)
Gamma-Trafo               :    0.000 sec (  0.0%)
D(virtual)                :    0.000 sec (  0.0%)
D(internal)               :    0.000 sec (  0.0%)
W(virtual)                :    0.000 sec (  0.0%)
W(internal)               :    0.000 sec (  0.0%)
L(virtual)                :    0.000 sec (  0.0%)
L(internal)               :    0.000 sec (  0.0%)
G(D)                      :    0.000 sec (  0.0%)
G(Z)                      :    0.000 sec (  0.0%)
Z-Vector Solution         :    0.000 sec (  0.0%)
Z-Vector Solution         :    0.000 sec (  0.0%)
3-Index Derivative 
+ Separable RIJ part      :    0.000 sec (  0.0%)
2-Index Derivative 
+ Separable RIJ part      :    0.000 sec (  0.0%)
Separable Gradient (X)    :    0.000 sec (  0.0%)


---------------------------------------
MP2 TOTAL ENERGY:    -2642.674051801 Eh
---------------------------------------


-------------------------------------------------------------------------------
                          DFT DISPERSION CORRECTION                            
                                                                               
                              DFTD3 V3.1  Rev 1                                
                          USING Becke-Johnson damping                          
-------------------------------------------------------------------------------
The DSD-BLYP/2013 functional is recognized
Active option DFTDOPT                   ...         4   

molecular C6(AA) [au] = 81757.763751 


            DFT-D V3
 parameters
 s6 scaling factor         :     0.5700 
 a1 scaling factor         :     0.0000 
 s8 scaling factor         :     0.0000 
 a2 scaling factor         :     5.4000 
 ad hoc parameters k1-k3   :    16.0000     1.3333    -4.0000 

 Edisp/kcal,au: -77.870938368351  -0.124095226097 
 E6   /kcal   : -77.870938368 
 E8   /kcal   :  -0.000000000 
 % E8         :   0.000000000 

-------------------------   ----------------
Dispersion correction           -0.124095226
-------------------------   ----------------


-------------------------   --------------------
FINAL SINGLE POINT ENERGY     -2642.798147027223
-------------------------   --------------------


                            ***************************************
                            *     ORCA property calculations      *
                            ***************************************


  WARNING: The energy has been calculated at the MP2 level but the densities
           used in the property calculations are still SCF densities
           MP2 response densities have not been calculated 
           use %mp2 Density relaxed end
           or  %mp2 Density unrelaxed end

                                    ---------------------
                                    Active property flags
                                    ---------------------
   (+) Dipole Moment


------------------------------------------------------------------------------
                       ORCA ELECTRIC PROPERTIES CALCULATION
------------------------------------------------------------------------------

Dipole Moment Calculation                       ... on
Quadrupole Moment Calculation                   ... off
Polarizability Calculation                      ... off
GBWName                                         ... MOR28_pr09.gbw
Electron density file                           ... MOR28_pr09.scfp
The origin for moment calculation is the CENTER OF MASS  = ( 0.000333, -0.027738 -0.002715)

-------------
DIPOLE MOMENT
-------------
                                X             Y             Z
Electronic contribution:      0.23758      -6.54555      -2.79126
Nuclear contribution   :     -0.23889       7.84350       2.82850
                        -----------------------------------------
Total Dipole Moment    :     -0.00131       1.29795       0.03724
                        -----------------------------------------
Magnitude (a.u.)       :      1.29848
Magnitude (Debye)      :      3.30049



--------------------
Rotational spectrum 
--------------------
 
Rotational constants in cm-1:     0.003375     0.001837     0.001796 
Rotational constants in MHz :   101.191459    55.075356    53.852243 

 Dipole components along the rotational axes: 
x,y,z [a.u.] :     0.001206     1.298068     0.032878 
x,y,z [Debye]:     0.003065     3.299426     0.083570 

 

Timings for individual modules:

Sum of individual times         ...     1648.852 sec (=  27.481 min)
GTO integral calculation        ...       13.772 sec (=   0.230 min)   0.8 %
SCF iterations                  ...     1243.710 sec (=  20.728 min)  75.4 %
MP2 module                      ...      391.371 sec (=   6.523 min)  23.7 %
                             ****ORCA TERMINATED NORMALLY****
TOTAL RUN TIME: 0 days 0 hours 27 minutes 30 seconds 141 msec
