
                                 *****************
                                 * O   R   C   A *
                                 *****************

           --- An Ab Initio, DFT and Semiempirical electronic structure package ---

                  #######################################################
                  #                        -***-                        #
                  #          Department of theory and spectroscopy      #
                  #               Directorship: Frank Neese             #
                  #        Max Planck Institute fuer Kohlenforschung    #
                  #                Kaiser Wilhelm Platz 1               #
                  #                 D-45470 Muelheim/Ruhr               #
                  #                      Germany                        #
                  #                                                     #
                  #                  All rights reserved                #
                  #                        -***-                        #
                  #######################################################


                         Program Version 4.2.0 -  RELEASE  -


 With contributions from (in alphabetic order):
   Daniel Aravena         : Magnetic Suceptibility
   Michael Atanasov       : Ab Initio Ligand Field Theory (pilot matlab implementation)
   Alexander A. Auer      : GIAO ZORA, VPT2
   Ute Becker             : Parallelization
   Giovanni Bistoni       : ED, misc. LED, open-shell LED, HFLED
   Martin Brehm           : Molecular dynamics
   Dmytro Bykov           : SCF Hessian
   Vijay G. Chilkuri      : MRCI spin determinant printing, contributions to CSF-ICE
   Dipayan Datta          : RHF DLPNO-CCSD density
   Achintya Kumar Dutta   : EOM-CC, STEOM-CC
   Dmitry Ganyushin       : Spin-Orbit,Spin-Spin,Magnetic field MRCI
   Miquel Garcia          : C-PCM Hessian, Gaussian charge scheme
   Yang Guo               : DLPNO-NEVPT2, CIM, IAO-localization
   Andreas Hansen         : Spin unrestricted coupled pair/coupled cluster methods
   Benjamin Helmich-Paris : CASSCF linear response (MC-RPA)
   Lee Huntington         : MR-EOM, pCC
   Robert Izsak           : Overlap fitted RIJCOSX, COSX-SCS-MP3, EOM
   Christian Kollmar      : KDIIS, OOCD, Brueckner-CCSD(T), CCSD density
   Simone Kossmann        : Meta GGA functionals, TD-DFT gradient, OOMP2, MP2 Hessian
   Martin Krupicka        : AUTO-CI
   Lucas Lang             : DCDCAS
   Dagmar Lenk            : GEPOL surface, SMD
   Dimitrios Liakos       : Extrapolation schemes; Compound Job, initial MDCI parallelization
   Dimitrios Manganas     : Further ROCIS development; embedding schemes
   Dimitrios Pantazis     : SARC Basis sets
   Taras Petrenko         : DFT Hessian,TD-DFT gradient, ASA, ECA, R-Raman, ABS, FL, XAS/XES, NRVS
   Peter Pinski           : DLPNO-MP2, DLPNO-MP2 Gradient
   Christoph Reimann      : Effective Core Potentials
   Marius Retegan         : Local ZFS, SOC
   Christoph Riplinger    : Optimizer, TS searches, QM/MM, DLPNO-CCSD(T), (RO)-DLPNO pert. Triples
   Tobias Risthaus        : Range-separated hybrids, TD-DFT gradient, RPA, STAB
   Michael Roemelt        : Original ROCIS implementation
   Masaaki Saitow         : Open-shell DLPNO-CCSD energy and density
   Barbara Sandhoefer     : DKH picture change effects
   Avijit Sen             : IP-ROCIS
   Kantharuban Sivalingam : CASSCF convergence, NEVPT2, FIC-MRCI
   Bernardo de Souza      : ESD, SOC TD-DFT
   Georgi Stoychev        : AutoAux, RI-MP2 NMR
   Willem Van den Heuvel  : Paramagnetic NMR
   Boris Wezisla          : Elementary symmetry handling
   Frank Wennmohs         : Technical directorship


 We gratefully acknowledge several colleagues who have allowed us to
 interface, adapt or use parts of their codes:
   Stefan Grimme, W. Hujo, H. Kruse,             : VdW corrections, initial TS optimization,
                  C. Bannwarth                     DFT functionals, gCP, sTDA/sTD-DF
   Ed Valeev, F. Pavosevic, A. Kumar             : LibInt (2-el integral package), F12 methods
   Garnet Chan, S. Sharma, J. Yang, R. Olivares  : DMRG
   Ulf Ekstrom                                   : XCFun DFT Library
   Mihaly Kallay                                 : mrcc  (arbitrary order and MRCC methods)
   Andreas Klamt, Michael Diedenhofen            : otool_cosmo (COSMO solvation model)
   Jiri Pittner, Ondrej Demel                    : Mk-CCSD
   Frank Weinhold                                : gennbo (NPA and NBO analysis)
   Christopher J. Cramer and Donald G. Truhlar   : smd solvation model
   Lars Goerigk                                  : TD-DFT with DH, B97 family of functionals
   V. Asgeirsson, H. Jonsson                     : NEB implementation
   FAccTs GmbH                                   : IRC, NEB, NEB-TS, Multilevel, MM, QM/MM, CI optimization
   S Lehtola, MJT Oliveira, MAL Marques          : LibXC Library


 Your calculation uses the libint2 library for the computation of 2-el integrals
 For citations please refer to: http://libint.valeyev.net

 Your ORCA version has been built with support for libXC version: 4.2.3
 For citations please refer to: https://tddft.org/programs/libxc/

 This ORCA versions uses:
   CBLAS   interface :  Fast vector & matrix operations
   LAPACKE interface :  Fast linear algebra routines
   SCALAPACK package :  Parallel linear algebra routines


Your calculation utilizes the atom-pairwise dispersion correction
with the Becke-Johnson damping scheme (D3BJ)
Cite in your paper:
S.Grimme, S.Ehrlich, L.Goerigk, J Comput Chem, (2011), 32, 1456–1465 
S.Grimme, J.Antony, S.Ehrlich and H.Krieg, J.Chem.Phys., 132, (2010), 154104 
   

----- Orbital basis set information -----
Your calculation utilizes the basis: def2-TZVPPD
   F. Weigend and R. Ahlrichs, Phys. Chem. Chem. Phys. 7, 3297 (2005).
   D. Rappoport and F. Furche, J. Chem. Phys. 133 134105 (2010).

----- AuxC basis set information -----
Your calculation utilizes the auxiliary basis: def2-TZVPPD/C
   A. Hellweg, C. Hattig, S. Hofener and W. Klopper, Theor. Chem. Acc. 117, 587 (2007).

----- AuxJK basis set information -----
Your calculation utilizes the auxiliary basis: def2/JK
   H-Ba, Hf-Rn: F. Weigend, J. Comput. Chem. 29, 167 (2008).

cite the ECPs for Mo [Def2-ECP] as follows:
Ce-Yb(ecp-28): M. Dolg, H. Stoll, H.Preuss, J. Chem. Phys., 1989, 90, 1730-1734.
Y-Cd(ecp-28), Hf-Hg(ecp-46): D. Andrae,U. Haeussermann, M. Dolg, H. Stoll, H. Preuss, Theor. Chim. Acta, 1990, 77, 123-141.
In-Sb(ecp-28), Tl-Bi(ecp-46): B. Metz, H. Stoll, M. Dolg, J. Chem. Phys., 2000, 113, 2563-2569.
Te-Xe(ecp-28), Po-Rn(ecp-46): K. A. Peterson, D. Figgen, E. Goll, H. Stoll, M. Dolg, J. Chem. Phys., 2003, 119, 11113-11123.
Rb(ecp-28), Cs(ecp-46): T. Leininger, A. Nicklass, W. Kuechle, H. Stoll, M. Dolg, A. Bergner, Chem. Phys. Lett., 1996, 255, 274-280.
Sr(ecp-28), Ba(ecp-46): M. Kaupp, P. V. Schleyer, H. Stoll and H. Preuss, J. Chem. Phys., 1991, 94, 1360-1366.
La(ecp-46): M. Dolg, H. Stoll, A. Savin, H. Preuss, Theor. Chim. Acta, 1989, 75, 173-194.
Lu(ecp-28): X. Cao, M. Dolg, J. Chem. Phys., 2001, 115, 7348-7355.

ECP parameters for Mo [Def2-ECP] have been obtained from:
TURBOMOLE (7.0.2)

================================================================================
                                        WARNINGS
                       Please study these warnings very carefully!
================================================================================


WARNING: No MP2 level density has been requested!
         To caclulate MP2 level properties use
         %mp2 Density relaxed end
         or
         %mp2 Density unrelaxed end
         Otherwise for double-hybrid DFT only the energy is correct!

WARNING: There are different parametrizations of Gershom Martin's DSD-DFs
         for use with and without D3(BJ)!
         You are using the D3(BJ) parametrized version,
         consistent with the 2013 article (S. Kozuch and J. M. L. Martin, JCC 2013, 34, 2327)

WARNING: The frozen-core approximation is turned on by default for 
         the MP2 part of double-hybrid DFT.

INFO   : the flag for use of LIBINT has been found!

================================================================================
                                       INPUT FILE
================================================================================
NAME = MOR37_pr38.in
|  1> #
|  2> # MOR37_pr38 ri-DSD-BLYP/2013-D3BJ/Def2-TZVPPD
|  3> #
|  4> ! rijk ri-dsd-blyp/2013 d3bj def2-tzvppd def2/jk def2-tzvppd/c grid4 nofinalgrid
|  5> 
|  6> *xyz 0 1
|  7> Mo       0.000368   -0.000951   -0.664236 
|  8> C        1.186218    1.095679   -1.824431 
|  9> C       -1.543342    0.475450   -1.823831 
| 10> C        0.358600   -1.578355   -1.821075 
| 11> O        0.584740   -2.492846   -2.512436 
| 12> O        1.864319    1.747384   -2.517871 
| 13> O       -2.447606    0.735637   -2.516687 
| 14> P        1.980785   -0.729448    0.688588 
| 15> P       -1.623545   -1.348294    0.688464 
| 16> P       -0.357708    2.080403    0.685812 
| 17> C       -1.633250    3.223236    0.009653 
| 18> H       -1.705660    4.145387    0.596929 
| 19> H       -2.603028    2.718106    0.000627 
| 20> H       -1.373511    3.465952   -1.024212 
| 21> C       -0.858884    2.043709    2.465539 
| 22> H       -1.825180    1.541749    2.565977 
| 23> H       -0.943418    3.056285    2.875390 
| 24> H       -0.120247    1.484663    3.045786 
| 25> C        1.092608    3.215640    0.782943 
| 26> H        0.848407    4.138527    1.320517 
| 27> H        1.418994    3.459201   -0.231490 
| 28> H        1.920240    2.713456    1.291867 
| 29> C       -1.984130   -3.020964    0.008508 
| 30> H       -2.747676   -3.543086    0.595776 
| 31> H       -1.064326   -3.612180   -0.003877 
| 32> H       -2.325682   -2.913010   -1.024422 
| 33> C       -1.336917   -1.769970    2.466070 
| 34> H       -2.171293   -2.349509    2.876428 
| 35> H       -1.219304   -0.852646    3.048800 
| 36> H       -0.419591   -2.357379    2.562237 
| 37> C       -3.329045   -0.653966    0.792955 
| 38> H       -4.006858   -1.325859    1.330979 
| 39> H       -3.705797   -0.489375   -0.219919 
| 40> H       -3.303097    0.312486    1.304224 
| 41> C        3.608641   -0.198569    0.011444 
| 42> H        4.443241   -0.596886    0.599054 
| 43> H        3.657034    0.893802    0.001026 
| 44> H        3.688452   -0.546249   -1.021993 
| 45> C        2.199807   -0.272940    2.467201 
| 46> H        3.119209   -0.704894    2.877753 
| 47> H        1.346620   -0.631939    3.048604 
| 48> H        2.248134    0.815142    2.564989 
| 49> C        2.238042   -2.552971    0.789569 
| 50> H        3.157648   -2.802349    1.330381 
| 51> H        2.288935   -2.958854   -0.224143 
| 52> H        1.387609   -3.017788    1.296348 
| 53> *
| 54> 
| 55> %maxcore 5000
| 56> 
| 57> %pal
| 58> nprocs = 24
| 59> end
| 60> 
| 61> 
| 62>                          ****END OF INPUT****
================================================================================

                       ****************************
                       * Single Point Calculation *
                       ****************************

---------------------------------
CARTESIAN COORDINATES (ANGSTROEM)
---------------------------------
  Mo     0.000368   -0.000951   -0.664236
  C      1.186218    1.095679   -1.824431
  C     -1.543342    0.475450   -1.823831
  C      0.358600   -1.578355   -1.821075
  O      0.584740   -2.492846   -2.512436
  O      1.864319    1.747384   -2.517871
  O     -2.447606    0.735637   -2.516687
  P      1.980785   -0.729448    0.688588
  P     -1.623545   -1.348294    0.688464
  P     -0.357708    2.080403    0.685812
  C     -1.633250    3.223236    0.009653
  H     -1.705660    4.145387    0.596929
  H     -2.603028    2.718106    0.000627
  H     -1.373511    3.465952   -1.024212
  C     -0.858884    2.043709    2.465539
  H     -1.825180    1.541749    2.565977
  H     -0.943418    3.056285    2.875390
  H     -0.120247    1.484663    3.045786
  C      1.092608    3.215640    0.782943
  H      0.848407    4.138527    1.320517
  H      1.418994    3.459201   -0.231490
  H      1.920240    2.713456    1.291867
  C     -1.984130   -3.020964    0.008508
  H     -2.747676   -3.543086    0.595776
  H     -1.064326   -3.612180   -0.003877
  H     -2.325682   -2.913010   -1.024422
  C     -1.336917   -1.769970    2.466070
  H     -2.171293   -2.349509    2.876428
  H     -1.219304   -0.852646    3.048800
  H     -0.419591   -2.357379    2.562237
  C     -3.329045   -0.653966    0.792955
  H     -4.006858   -1.325859    1.330979
  H     -3.705797   -0.489375   -0.219919
  H     -3.303097    0.312486    1.304224
  C      3.608641   -0.198569    0.011444
  H      4.443241   -0.596886    0.599054
  H      3.657034    0.893802    0.001026
  H      3.688452   -0.546249   -1.021993
  C      2.199807   -0.272940    2.467201
  H      3.119209   -0.704894    2.877753
  H      1.346620   -0.631939    3.048604
  H      2.248134    0.815142    2.564989
  C      2.238042   -2.552971    0.789569
  H      3.157648   -2.802349    1.330381
  H      2.288935   -2.958854   -0.224143
  H      1.387609   -3.017788    1.296348

----------------------------
CARTESIAN COORDINATES (A.U.)
----------------------------
  NO LB      ZA    FRAG     MASS         X           Y           Z
   0 Mo   14.0000*   0    95.940    0.000695   -0.001797   -1.255224
   1 C     6.0000    0    12.011    2.241627    2.070533   -3.447675
   2 C     6.0000    0    12.011   -2.916494    0.898470   -3.446541
   3 C     6.0000    0    12.011    0.677656   -2.982659   -3.441333
   4 O     8.0000    0    15.999    1.104998   -4.710796   -4.747816
   5 O     8.0000    0    15.999    3.523052    3.302077   -4.758087
   6 O     8.0000    0    15.999   -4.625305    1.390152   -4.755849
   7 P    15.0000    0    30.974    3.743141   -1.378457    1.301243
   8 P    15.0000    0    30.974   -3.068055   -2.547906    1.301008
   9 P    15.0000    0    30.974   -0.675970    3.931392    1.295997
  10 C     6.0000    0    12.011   -3.086395    6.091033    0.018242
  11 H     1.0000    0     1.008   -3.223230    7.833646    1.128032
  12 H     1.0000    0     1.008   -4.919010    5.136476    0.001185
  13 H     1.0000    0     1.008   -2.595560    6.549700   -1.935480
  14 C     6.0000    0    12.011   -1.623056    3.862050    4.659193
  15 H     1.0000    0     1.008   -3.449090    2.913483    4.848994
  16 H     1.0000    0     1.008   -1.782802    5.775542    5.433700
  17 H     1.0000    0     1.008   -0.227234    2.805606    5.755701
  18 C     6.0000    0    12.011    2.064730    6.076679    1.479548
  19 H     1.0000    0     1.008    1.603257    7.820683    2.495415
  20 H     1.0000    0     1.008    2.681510    6.536943   -0.437453
  21 H     1.0000    0     1.008    3.628728    5.127689    2.441275
  22 C     6.0000    0    12.011   -3.749462   -5.708795    0.016078
  23 H     1.0000    0     1.008   -5.192355   -6.695462    1.125853
  24 H     1.0000    0     1.008   -2.011285   -6.826031   -0.007326
  25 H     1.0000    0     1.008   -4.394902   -5.504791   -1.935877
  26 C     6.0000    0    12.011   -2.526407   -3.344759    4.660197
  27 H     1.0000    0     1.008   -4.103149   -4.439929    5.435661
  28 H     1.0000    0     1.008   -2.304151   -1.611267    5.761397
  29 H     1.0000    0     1.008   -0.792912   -4.454801    4.841926
  30 C     6.0000    0    12.011   -6.290983   -1.235817    1.498468
  31 H     1.0000    0     1.008   -7.571864   -2.505510    2.515186
  32 H     1.0000    0     1.008   -7.002941   -0.924785   -0.415587
  33 H     1.0000    0     1.008   -6.241949    0.590513    2.464626
  34 C     6.0000    0    12.011    6.819343   -0.375241    0.021626
  35 H     1.0000    0     1.008    8.396509   -1.127951    1.132048
  36 H     1.0000    0     1.008    6.910793    1.689041    0.001939
  37 H     1.0000    0     1.008    6.970164   -1.032261   -1.931287
  38 C     6.0000    0    12.011    4.157033   -0.515782    4.662334
  39 H     1.0000    0     1.008    5.894451   -1.332057    5.438165
  40 H     1.0000    0     1.008    2.544743   -1.194192    5.761027
  41 H     1.0000    0     1.008    4.248358    1.540395    4.847127
  42 C     6.0000    0    12.011    4.229286   -4.824416    1.492069
  43 H     1.0000    0     1.008    5.967090   -5.295672    2.514056
  44 H     1.0000    0     1.008    4.325460   -5.591424   -0.423569
  45 H     1.0000    0     1.008    2.622201   -5.702793    2.449743
* core charge reduced due to ECP

--------------------------------
INTERNAL COORDINATES (ANGSTROEM)
--------------------------------
 Mo     0   0   0     0.000000000000     0.00000000     0.00000000
 C      1   0   0     1.988690528319     0.00000000     0.00000000
 C      1   2   0     1.988632454961    89.46128764     0.00000000
 C      1   2   3     1.988670414363    89.46193183    89.46921956
 O      4   1   2     1.168508930647   178.86812029     6.51846240
 O      2   1   3     1.168503062395   178.85991355     6.37056828
 O      3   1   2     1.168520471965   178.87157847    96.25921765
 P      1   2   3     2.506569797128    90.22935200   176.09041719
 P      1   2   3     2.506436490561   176.04395978     3.70655342
 P      1   2   3     2.506567872090    86.64718269   269.72450756
 C     10   1   2     1.841267403973   114.61760223    82.46228783
 H     11  10   1     1.095672749993   111.79777680   183.74525823
 H     11  10   1     1.093483952722   109.31085116    62.27958480
 H     11  10   1     1.093275922630   108.69202984   304.87730741
 C     10   1   2     1.849311230470   122.72291328   204.27412740
 H     15  10   1     1.093517074883   109.69288201   299.29877108
 H     15  10   1     1.095643187873   111.25810817   178.90985062
 H     15  10   1     1.093070733710   109.74799549    58.14003268
 C     10   1   2     1.844346490545   115.28590184   326.49065573
 H     19  10   1     1.095600451189   111.65749336   175.65121091
 H     19  10   1     1.093125835943   108.84829929    54.61887917
 H     19  10   1     1.093694260320   109.69065585   296.71164414
 C      9   1   3     1.841245945837   114.57707187    82.08546856
 H     23   9   1     1.095672205007   111.80447892   183.84191780
 H     23   9   1     1.093494007893   109.30627646    62.37431477
 H     23   9   1     1.093277741345   108.68624668   304.97624158
 C      9   1   3     1.849283469508   122.74667659   203.89544732
 H     27   9   1     1.095647046298   111.25967410   179.07487836
 H     27   9   1     1.093110420609   109.74015724    58.31476841
 H     27   9   1     1.093519279869   109.69673341   299.47241753
 C      9   1   3     1.844380652323   115.29768154   326.15325644
 H     31   9   1     1.095600516153   111.65623660   175.61830579
 H     31   9   1     1.093135859196   108.83770007    54.59959590
 H     31   9   1     1.093662999909   109.70718450   296.68231823
 C      8   1   2     1.841269036864   114.59706857   352.95688582
 H     35   8   1     1.095672900363   111.80140135   183.81964697
 H     35   8   1     1.093492029607   109.30862855    62.35602212
 H     35   8   1     1.093271791958   108.69201056   304.95470716
 C      8   1   2     1.849279425700   122.74611464   114.75507476
 H     39   8   1     1.095644668870   111.25112146   178.97638609
 H     39   8   1     1.093086358610   109.75801008    58.20780757
 H     39   8   1     1.093535747288   109.68609327   299.35583056
 C      8   1   2     1.844346620877   115.28421321   237.01460190
 H     43   8   1     1.095601296761   111.66331317   175.79199402
 H     43   8   1     1.093134541620   108.83416448    54.76877029
 H     43   8   1     1.093670922087   109.70126913   296.86988779

---------------------------
INTERNAL COORDINATES (A.U.)
---------------------------
 Mo     0   0   0     0.000000000000     0.00000000     0.00000000
 C      1   0   0     3.758080463646     0.00000000     0.00000000
 C      1   2   0     3.757970720905    89.46128764     0.00000000
 C      1   2   3     3.758042453777    89.46193183    89.46921956
 O      4   1   2     2.208161863964   178.86812029     6.51846240
 O      2   1   3     2.208150774574   178.85991355     6.37056828
 O      3   1   2     2.208183673894   178.87157847    96.25921765
 P      1   2   3     4.736730452130    90.22935200   176.09041719
 P      1   2   3     4.736478539228   176.04395978     3.70655342
 P      1   2   3     4.736726814337    86.64718269   269.72450756
 C     10   1   2     3.479491132825   114.61760223    82.46228783
 H     11  10   1     2.070521429887   111.79777680   183.74525823
 H     11  10   1     2.066385202482   109.31085116    62.27958480
 H     11  10   1     2.065992082580   108.69202984   304.87730741
 C     10   1   2     3.494691761972   122.72291328   204.27412740
 H     15  10   1     2.066447794295   109.69288201   299.29877108
 H     15  10   1     2.070465565577   111.25810817   178.90985062
 H     15  10   1     2.065604331717   109.74799549    58.14003268
 C     10   1   2     3.485309763189   115.28590184   326.49065573
 H     19  10   1     2.070384804948   111.65749336   175.65121091
 H     19  10   1     2.065708459846   108.84829929    54.61887917
 H     19  10   1     2.066782626246   109.69065585   296.71164414
 C      9   1   3     3.479450582825   114.57707187    82.08546856
 H     23   9   1     2.070520400012   111.80447892   183.84191780
 H     23   9   1     2.066404204001   109.30627646    62.37431477
 H     23   9   1     2.065995519454   108.68624668   304.97624158
 C      9   1   3     3.494639301358   122.74667659   203.89544732
 H     27   9   1     2.070472856942   111.25967410   179.07487836
 H     27   9   1     2.065679329087   109.74015724    58.31476841
 H     27   9   1     2.066451961116   109.69673341   299.47241753
 C      9   1   3     3.485374319594   115.29768154   326.15325644
 H     31   9   1     2.070384927711   111.65623660   175.61830579
 H     31   9   1     2.065727401050   108.83770007    54.59959590
 H     31   9   1     2.066723552630   109.70718450   296.68231823
 C      8   1   2     3.479494218541   114.59706857   352.95688582
 H     35   8   1     2.070521714045   111.80140135   183.81964697
 H     35   8   1     2.066400465583   109.30862855    62.35602212
 H     35   8   1     2.065984276741   108.69201056   304.95470716
 C      8   1   2     3.494631659668   122.74611464   114.75507476
 H     39   8   1     2.070468364256   111.25112146   178.97638609
 H     39   8   1     2.065633858498   109.75801008    58.20780757
 H     39   8   1     2.066483080027   109.68609327   299.35583056
 C      8   1   2     3.485310009480   115.28421321   237.01460190
 H     43   8   1     2.070386402847   111.66331317   175.79199402
 H     43   8   1     2.065724911191   108.83416448    54.76877029
 H     43   8   1     2.066738523378   109.70126913   296.86988779

---------------------
BASIS SET INFORMATION
---------------------
There are 5 groups of distinct atoms

 Group   1 Type Mo  : 7s7p5d2f1g contracted to 6s4p3d2f1g pattern {211111/4111/311/11/1}
 Group   2 Type C   : 12s6p3d1f contracted to 6s3p3d1f pattern {621111/411/111/1}
 Group   3 Type O   : 12s7p3d1f contracted to 6s4p3d1f pattern {621111/4111/111/1}
 Group   4 Type P   : 15s9p4d1f contracted to 6s5p4d1f pattern {732111/51111/1111/1}
 Group   5 Type H   : 5s3p1d contracted to 3s3p1d pattern {311/111/1}

Atom   0Mo   basis set group =>   1
Atom   1C    basis set group =>   2
Atom   2C    basis set group =>   2
Atom   3C    basis set group =>   2
Atom   4O    basis set group =>   3
Atom   5O    basis set group =>   3
Atom   6O    basis set group =>   3
Atom   7P    basis set group =>   4
Atom   8P    basis set group =>   4
Atom   9P    basis set group =>   4
Atom  10C    basis set group =>   2
Atom  11H    basis set group =>   5
Atom  12H    basis set group =>   5
Atom  13H    basis set group =>   5
Atom  14C    basis set group =>   2
Atom  15H    basis set group =>   5
Atom  16H    basis set group =>   5
Atom  17H    basis set group =>   5
Atom  18C    basis set group =>   2
Atom  19H    basis set group =>   5
Atom  20H    basis set group =>   5
Atom  21H    basis set group =>   5
Atom  22C    basis set group =>   2
Atom  23H    basis set group =>   5
Atom  24H    basis set group =>   5
Atom  25H    basis set group =>   5
Atom  26C    basis set group =>   2
Atom  27H    basis set group =>   5
Atom  28H    basis set group =>   5
Atom  29H    basis set group =>   5
Atom  30C    basis set group =>   2
Atom  31H    basis set group =>   5
Atom  32H    basis set group =>   5
Atom  33H    basis set group =>   5
Atom  34C    basis set group =>   2
Atom  35H    basis set group =>   5
Atom  36H    basis set group =>   5
Atom  37H    basis set group =>   5
Atom  38C    basis set group =>   2
Atom  39H    basis set group =>   5
Atom  40H    basis set group =>   5
Atom  41H    basis set group =>   5
Atom  42C    basis set group =>   2
Atom  43H    basis set group =>   5
Atom  44H    basis set group =>   5
Atom  45H    basis set group =>   5
---------------------------------
AUXILIARY/C BASIS SET INFORMATION
---------------------------------
There are 5 groups of distinct atoms

 Group   1 Type Mo  : 8s7p6d5f4g3h1i contracted to 8s7p6d5f4g3h1i pattern {11111111/1111111/111111/11111/1111/111/1}
 Group   2 Type C   : 9s7p6d4f1g contracted to 9s7p5d4f1g pattern {111111111/1111111/21111/1111/1}
 Group   3 Type O   : 9s7p6d4f1g contracted to 9s7p5d4f1g pattern {111111111/1111111/21111/1111/1}
 Group   4 Type P   : 12s9p8d6f2g contracted to 12s9p8d6f2g pattern {111111111111/111111111/11111111/111111/11}
 Group   5 Type H   : 5s4p3d1f contracted to 5s4p3d1f pattern {11111/1111/111/1}

Atom   0Mo   basis set group =>   1
Atom   1C    basis set group =>   2
Atom   2C    basis set group =>   2
Atom   3C    basis set group =>   2
Atom   4O    basis set group =>   3
Atom   5O    basis set group =>   3
Atom   6O    basis set group =>   3
Atom   7P    basis set group =>   4
Atom   8P    basis set group =>   4
Atom   9P    basis set group =>   4
Atom  10C    basis set group =>   2
Atom  11H    basis set group =>   5
Atom  12H    basis set group =>   5
Atom  13H    basis set group =>   5
Atom  14C    basis set group =>   2
Atom  15H    basis set group =>   5
Atom  16H    basis set group =>   5
Atom  17H    basis set group =>   5
Atom  18C    basis set group =>   2
Atom  19H    basis set group =>   5
Atom  20H    basis set group =>   5
Atom  21H    basis set group =>   5
Atom  22C    basis set group =>   2
Atom  23H    basis set group =>   5
Atom  24H    basis set group =>   5
Atom  25H    basis set group =>   5
Atom  26C    basis set group =>   2
Atom  27H    basis set group =>   5
Atom  28H    basis set group =>   5
Atom  29H    basis set group =>   5
Atom  30C    basis set group =>   2
Atom  31H    basis set group =>   5
Atom  32H    basis set group =>   5
Atom  33H    basis set group =>   5
Atom  34C    basis set group =>   2
Atom  35H    basis set group =>   5
Atom  36H    basis set group =>   5
Atom  37H    basis set group =>   5
Atom  38C    basis set group =>   2
Atom  39H    basis set group =>   5
Atom  40H    basis set group =>   5
Atom  41H    basis set group =>   5
Atom  42C    basis set group =>   2
Atom  43H    basis set group =>   5
Atom  44H    basis set group =>   5
Atom  45H    basis set group =>   5
----------------------------------
AUXILIARY/JK BASIS SET INFORMATION
----------------------------------
There are 5 groups of distinct atoms

 Group   1 Type Mo  : 13s12p10d9f6g3h2i contracted to 11s10p9d8f6g3h2i pattern {31111111111/3111111111/211111111/21111111/111111/111/11}
 Group   2 Type C   : 14s10p6d2f1g contracted to 10s8p5d1f1g pattern {5111111111/31111111/21111/2/1}
 Group   3 Type O   : 14s10p6d2f1g contracted to 10s8p4d2f1g pattern {5111111111/31111111/3111/11/1}
 Group   4 Type P   : 16s12p10d4f1g contracted to 13s11p9d4f1g pattern {4111111111111/21111111111/211111111/1111/1}
 Group   5 Type H   : 4s2p2d contracted to 2s2p2d pattern {31/11/11}

Atom   0Mo   basis set group =>   1
Atom   1C    basis set group =>   2
Atom   2C    basis set group =>   2
Atom   3C    basis set group =>   2
Atom   4O    basis set group =>   3
Atom   5O    basis set group =>   3
Atom   6O    basis set group =>   3
Atom   7P    basis set group =>   4
Atom   8P    basis set group =>   4
Atom   9P    basis set group =>   4
Atom  10C    basis set group =>   2
Atom  11H    basis set group =>   5
Atom  12H    basis set group =>   5
Atom  13H    basis set group =>   5
Atom  14C    basis set group =>   2
Atom  15H    basis set group =>   5
Atom  16H    basis set group =>   5
Atom  17H    basis set group =>   5
Atom  18C    basis set group =>   2
Atom  19H    basis set group =>   5
Atom  20H    basis set group =>   5
Atom  21H    basis set group =>   5
Atom  22C    basis set group =>   2
Atom  23H    basis set group =>   5
Atom  24H    basis set group =>   5
Atom  25H    basis set group =>   5
Atom  26C    basis set group =>   2
Atom  27H    basis set group =>   5
Atom  28H    basis set group =>   5
Atom  29H    basis set group =>   5
Atom  30C    basis set group =>   2
Atom  31H    basis set group =>   5
Atom  32H    basis set group =>   5
Atom  33H    basis set group =>   5
Atom  34C    basis set group =>   2
Atom  35H    basis set group =>   5
Atom  36H    basis set group =>   5
Atom  37H    basis set group =>   5
Atom  38C    basis set group =>   2
Atom  39H    basis set group =>   5
Atom  40H    basis set group =>   5
Atom  41H    basis set group =>   5
Atom  42C    basis set group =>   2
Atom  43H    basis set group =>   5
Atom  44H    basis set group =>   5
Atom  45H    basis set group =>   5
-------------------------
ECP PARAMETER INFORMATION
-------------------------

 Group 1, Type Mo ECP Def2-ECP (replacing 28 core electrons, lmax=3)

Atom   0Mo   ECP group =>   1



           ************************************************************
           *        Program running with 24 parallel MPI-processes    *
           *              working on a common directory               *
           ************************************************************
------------------------------------------------------------------------------
                           ORCA GTO INTEGRAL CALCULATION
                           -- RI-GTO INTEGRALS CHOSEN --
------------------------------------------------------------------------------

                         BASIS SET STATISTICS AND STARTUP INFO

Gaussian basis set:
 # of primitive gaussian shells          ...  685
 # of primitive gaussian functions       ... 1585
 # of contracted shells                  ...  451
 # of contracted basis functions         ... 1223
 Highest angular momentum                ...    4
 Maximum contraction depth               ...    7
Auxiliary gaussian basis set:
 # of primitive gaussian shells          ...  895
 # of primitive gaussian functions       ... 2687
 # of contracted shells                  ...  700
 # of contracted aux-basis functions     ... 2256
 Highest angular momentum                ...    6
 Maximum contraction depth               ...    5
Ratio of auxiliary to basis functions    ...  1.84
Integral package used                  ... LIBINT
 One Electron integrals                  
   ECP integrals                         ... done
 Ordering auxiliary basis shells         ... done
 Integral threshhold             Thresh  ...  1.000e-10
 Primitive cut-off               TCut    ...  1.000e-11
 Pre-screening matrix                    ... done
 Shell pair data                         ... 
 Ordering of the shell pairs             ... done (   0.015 sec) 80952 of 101926 pairs
 Determination of significant pairs      ... done (   0.000 sec)
 Creation of shell pair data             ... done (   0.008 sec)
 Storage of shell pair data              ... done (   0.037 sec)
 Shell pair data done in (   0.061 sec)
 Computing two index integrals           ... done
 Cholesky decomposition of the V-matrix  ... done


Timings:
 Total evaluation time                   ...   6.791 sec (  0.113 min)
 One electron matrix time                ...   5.701 sec (  0.095 min) = 84.0%
 Schwartz matrix evaluation time         ...   0.569 sec (  0.009 min) =  8.4%
 Two index repulsion integral time       ...   0.190 sec (  0.003 min) =  2.8%
 Cholesky decomposition of V             ...   0.241 sec (  0.004 min) =  3.6%
 Three index repulsion integral time     ...   0.000 sec (  0.000 min) =  0.0%



           ************************************************************
           *        Program running with 24 parallel MPI-processes    *
           *              working on a common directory               *
           ************************************************************
-------------------------------------------------------------------------------
                                 ORCA SCF
-------------------------------------------------------------------------------

------------
SCF SETTINGS
------------
Hamiltonian:
 Density Functional     Method          .... DFT(GTOs)
 Exchange Functional    Exchange        .... B88
   X-Alpha parameter    XAlpha          ....  0.666667
   Becke's b parameter  XBeta           ....  0.004200
 Correlation Functional Correlation     .... LYP
 LDA part of GGA corr.  LDAOpt          .... VWN-5
 Gradients option       PostSCFGGA      .... off
 Hybrid DFT is turned on
   Fraction HF Exchange ScalHFX         ....  0.710000
   Scaling of DF-GGA-X  ScalDFX         ....  0.290000
   Scaling of DF-GGA-C  ScalDFC         ....  0.540000
   Scaling of DF-LDA-C  ScalLDAC        ....  0.540000
   Perturbative correction              ....  1.000000
   Density functional embedding theory  .... OFF
 RI-approximation to the Coulomb term is turned on
   Number of auxiliary basis functions  .... 2256
   RI-JK (J+K treated both via RI)      .... on


General Settings:
 Integral files         IntName         .... MOR37_pr38
 Hartree-Fock type      HFTyp           .... RHF
 Total Charge           Charge          ....    0
 Multiplicity           Mult            ....    1
 Number of Electrons    NEL             ....  182
 Basis Dimension        Dim             .... 1223
 Nuclear Repulsion      ENuc            ....   2310.7496732048 Eh

Convergence Acceleration:
 DIIS                   CNVDIIS         .... on
   Start iteration      DIISMaxIt       ....    12
   Startup error        DIISStart       ....  0.200000
   # of expansion vecs  DIISMaxEq       ....     5
   Bias factor          DIISBfac        ....   1.050
   Max. coefficient     DIISMaxC        ....  10.000
 Newton-Raphson         CNVNR           .... off
 SOSCF                  CNVSOSCF        .... off
 Level Shifting         CNVShift        .... on
   Level shift para.    LevelShift      ....    0.2500
   Turn off err/grad.   ShiftErr        ....    0.0010
 Zerner damping         CNVZerner       .... off
 Static damping         CNVDamp         .... on
   Fraction old density DampFac         ....    0.7000
   Max. Damping (<1)    DampMax         ....    0.9800
   Min. Damping (>=0)   DampMin         ....    0.0000
   Turn off err/grad.   DampErr         ....    0.1000
 Fernandez-Rico         CNVRico         .... off

SCF Procedure:
 Maximum # iterations   MaxIter         ....   125
 SCF integral mode      SCFMode         .... Direct
   Integral package                     .... LIBINT
 Reset frequency        DirectResetFreq ....    20
 Integral Threshold     Thresh          ....  1.000e-10 Eh
 Primitive CutOff       TCut            ....  1.000e-11 Eh

Convergence Tolerance:
 Convergence Check Mode ConvCheckMode   .... Total+1el-Energy
 Convergence forced     ConvForced      .... 0
 Energy Change          TolE            ....  1.000e-06 Eh
 1-El. energy change                    ....  1.000e-03 Eh
 DIIS Error             TolErr          ....  1.000e-06


Diagonalization of the overlap matrix:
Smallest eigenvalue                        ... 8.075e-07
Time for diagonalization                   ...    0.222 sec
Threshold for overlap eigenvalues          ... 1.000e-08
Number of eigenvalues below threshold      ... 0
Time for construction of square roots      ...    0.200 sec
Total time needed                          ...    0.429 sec

-------------------
DFT GRID GENERATION
-------------------

General Integration Accuracy     IntAcc      ...  4.670
Radial Grid Type                 RadialGrid  ... Gauss-Chebyshev
Angular Grid (max. acc.)         AngularGrid ... Lebedev-302
Angular grid pruning method      GridPruning ... 3 (G Style)
Weight generation scheme         WeightScheme... Becke
Basis function cutoff            BFCut       ...    1.0000e-10
Integration weight cutoff        WCut        ...    1.0000e-14
Grids for H and He will be reduced by one unit

# of grid points (after initial pruning)     ... 215954 (   0.0 sec)
# of grid points (after weights+screening)   ... 185782 (   0.1 sec)
nearest neighbour list constructed           ...    0.0 sec
Grid point re-assignment to atoms done       ...    0.0 sec
Grid point division into batches done        ...    0.5 sec
Reduced shell lists constructed in    1.5 sec

Total number of grid points                  ...   185782
Total number of batches                      ...     2926
Average number of points per batch           ...       63
Average number of grid points per atom       ...     4039
Average number of shells per batch           ...   262.85 (58.28%)
Average number of basis functions per batch  ...   701.35 (57.35%)
Average number of large shells per batch     ...   193.85 (73.75%)
Average number of large basis fcns per batch ...   524.57 (74.79%)
Average number of aux-shells per batch       ...   262.85 (37.55%)
Average number of aux functions per batch    ...   701.35 (31.09%)
Maximum spatial batch extension              ...   4.21,  3.61,  5.15 au
Average spatial batch extension              ...   0.05,  0.05,  0.05 au

Time for grid setup =    1.690 sec

------------------------------
INITIAL GUESS: MODEL POTENTIAL
------------------------------
Loading Hartree-Fock densities                     ... done
  calling /sw/apps/orca/orca_4_2_0_linux_x86-64_openmpi314/orca MOR37_pr38_atom42.inp > MOR37_pr38_atom42.out in order to generate an atomic fitting density for atom 0 (Mo with ECP) on-the-fly... 
    atom 0 (Mo), assumed electronic state with S=5: 1s2 2s2 2p6 3s2 3p6 4s2 3d10 4p6 5s2 4d4           ... done
Calculating cut-offs                               ... done
Setting up the integral package                    ... done
Initializing the effective Hamiltonian             ... done
Starting the Coulomb interaction                   ... done (   0.2 sec)
Reading the grid                                   ... done
Mapping shells                                     ... done
Starting the XC term evaluation                    ... done (   0.9 sec)
  promolecular density results
     # of electrons  =    209.987902953
     EX              =   -282.027059569
     EC              =     -1.046044539
     EX+EC           =   -283.073104108
Transforming the Hamiltonian                       ... done (   0.1 sec)
Diagonalizing the Hamiltonian                      ... done (   0.2 sec)
Back transforming the eigenvectors                 ... done (   0.1 sec)
Now organizing SCF variables                       ... done
                      ------------------
                      INITIAL GUESS DONE (   4.9 sec)
                      ------------------
--------------
SCF ITERATIONS
--------------
ITER       Energy         Delta-E        Max-DP      RMS-DP      [F,P]     Damp
  0  -1787.4401869016   0.000000000000 0.82518227  0.00162715  0.4118578 0.7000
  1  -1787.1389801615   0.301206740110 0.55165536  0.00132377  0.2792900 0.7000
                               ***Turning on DIIS***
  2  -1787.3412506876  -0.202270526081 0.28591006  0.00079470  0.1728716 0.7000
  3  -1787.7189410671  -0.377690379561 0.35470668  0.00059038  0.1121535 0.7000
  4  -1788.1238975315  -0.404956464357 0.81269109  0.00132801  0.0852120 0.0000
  5  -1788.3912422026  -0.267344671144 0.58182753  0.00073876  0.0586906 0.0000
  6  -1788.4071396173  -0.015897414648 0.20964391  0.00024071  0.0171783 0.0000
  7  -1788.4094458283  -0.002306210988 0.83906740  0.00083802  0.0135493 0.0000
  8  -1788.4105838762  -0.001138047930 2.72784583  0.00267706  0.0097150 0.0000
  9  -1788.4113516200  -0.000767743819 0.77755821  0.00075428  0.0033856 0.0000
 10  -1788.4114116341  -0.000060014102 1.98120186  0.00192419  0.0007947 0.0000
 11  -1788.4114213791  -0.000009745027 0.12287015  0.00012386  0.0008642 0.0000
 12  -1788.4114247142  -0.000003335034 2.03174608  0.00197059  0.0007355 0.0000
 13  -1788.4114276843  -0.000002970183 0.40558961  0.00039623  0.0001181 0.0000
 14  -1788.4114279497  -0.000000265325 0.29739057  0.00028982  0.0000707 0.0000
                 **** Energy Check signals convergence ****

               *****************************************************
               *                     SUCCESS                       *
               *           SCF CONVERGED AFTER  15 CYCLES          *
               *****************************************************


----------------
TOTAL SCF ENERGY
----------------

Total Energy       :        -1788.41142784 Eh          -48665.14904 eV

Components:
Nuclear Repulsion  :         2310.74967320 Eh           62878.69530 eV
Electronic Energy  :        -4099.16110105 Eh         -111543.84434 eV
One Electron Energy:        -7084.50159057 Eh         -192779.08898 eV
Two Electron Energy:         2985.34048952 Eh           81235.24464 eV

Virial components:
Potential Energy   :        -3528.93296950 Eh          -96027.14803 eV
Kinetic Energy     :         1740.52154166 Eh           47361.99899 eV
Virial Ratio       :            2.02751468


DFT components:
N(Alpha)           :       91.000200092891 electrons
N(Beta)            :       91.000200092891 electrons
N(Total)           :      182.000400185782 electrons
E(X)               :      -49.864294520674 Eh       
E(C)               :       -3.447470390220 Eh       
E(XC)              :      -53.311764910894 Eh       
DFET-embed. en.    :        0.000000000000 Eh       

---------------
SCF CONVERGENCE
---------------

  Last Energy change         ...    1.0489e-07  Tolerance :   1.0000e-06
  Last MAX-Density change    ...    2.4033e-02  Tolerance :   1.0000e-05
  Last RMS-Density change    ...    3.9733e-05  Tolerance :   1.0000e-06
  Last DIIS Error            ...    1.2870e-05  Tolerance :   1.0000e-06

             **** THE GBW FILE WAS UPDATED (MOR37_pr38.gbw) ****
             **** DENSITY FILE WAS UPDATED (MOR37_pr38.scfp) ****
             **** ENERGY FILE WAS UPDATED (MOR37_pr38.en.tmp) ****
             **** THE GBW FILE WAS UPDATED (MOR37_pr38.gbw) ****
             **** DENSITY FILE WAS UPDATED (MOR37_pr38.scfp) ****
----------------
ORBITAL ENERGIES
----------------

  NO   OCC          E(Eh)            E(eV) 
   0   2.0000     -78.927406     -2147.7239 
   1   2.0000     -78.927395     -2147.7236 
   2   2.0000     -78.927378     -2147.7231 
   3   2.0000     -20.075646      -546.2861 
   4   2.0000     -20.075644      -546.2860 
   5   2.0000     -20.075623      -546.2855 
   6   2.0000     -10.939489      -297.6786 
   7   2.0000     -10.939481      -297.6784 
   8   2.0000     -10.939474      -297.6782 
   9   2.0000     -10.860880      -295.5396 
  10   2.0000     -10.860875      -295.5394 
  11   2.0000     -10.860862      -295.5391 
  12   2.0000     -10.854938      -295.3779 
  13   2.0000     -10.854915      -295.3773 
  14   2.0000     -10.854883      -295.3764 
  15   2.0000     -10.851600      -295.2871 
  16   2.0000     -10.851579      -295.2865 
  17   2.0000     -10.851550      -295.2857 
  18   2.0000      -7.162853      -194.9111 
  19   2.0000      -7.162843      -194.9109 
  20   2.0000      -7.162830      -194.9105 
  21   2.0000      -5.154797      -140.2692 
  22   2.0000      -5.154787      -140.2689 
  23   2.0000      -5.154772      -140.2685 
  24   2.0000      -5.154659      -140.2654 
  25   2.0000      -5.154647      -140.2651 
  26   2.0000      -5.154633      -140.2647 
  27   2.0000      -5.152576      -140.2087 
  28   2.0000      -5.152567      -140.2085 
  29   2.0000      -5.152556      -140.2082 
  30   2.0000      -2.803105       -76.2764 
  31   2.0000      -1.708808       -46.4990 
  32   2.0000      -1.708799       -46.4988 
  33   2.0000      -1.708069       -46.4789 
  34   2.0000      -1.305818       -35.5331 
  35   2.0000      -1.305168       -35.5154 
  36   2.0000      -1.305155       -35.5151 
  37   2.0000      -0.950835       -25.8735 
  38   2.0000      -0.944893       -25.7118 
  39   2.0000      -0.944888       -25.7117 
  40   2.0000      -0.868354       -23.6291 
  41   2.0000      -0.865106       -23.5407 
  42   2.0000      -0.865050       -23.5392 
  43   2.0000      -0.860309       -23.4102 
  44   2.0000      -0.860274       -23.4093 
  45   2.0000      -0.859136       -23.3783 
  46   2.0000      -0.694664       -18.9028 
  47   2.0000      -0.668984       -18.2040 
  48   2.0000      -0.668974       -18.2037 
  49   2.0000      -0.666562       -18.1381 
  50   2.0000      -0.665527       -18.1099 
  51   2.0000      -0.665511       -18.1095 
  52   2.0000      -0.577354       -15.7106 
  53   2.0000      -0.563411       -15.3312 
  54   2.0000      -0.563342       -15.3293 
  55   2.0000      -0.550824       -14.9887 
  56   2.0000      -0.550754       -14.9868 
  57   2.0000      -0.548760       -14.9325 
  58   2.0000      -0.544383       -14.8134 
  59   2.0000      -0.539655       -14.6848 
  60   2.0000      -0.539652       -14.6847 
  61   2.0000      -0.537938       -14.6380 
  62   2.0000      -0.528487       -14.3809 
  63   2.0000      -0.528431       -14.3793 
  64   2.0000      -0.523132       -14.2351 
  65   2.0000      -0.521639       -14.1945 
  66   2.0000      -0.521609       -14.1937 
  67   2.0000      -0.515784       -14.0352 
  68   2.0000      -0.509155       -13.8548 
  69   2.0000      -0.509090       -13.8530 
  70   2.0000      -0.508778       -13.8446 
  71   2.0000      -0.504353       -13.7241 
  72   2.0000      -0.504317       -13.7232 
  73   2.0000      -0.502586       -13.6761 
  74   2.0000      -0.497715       -13.5435 
  75   2.0000      -0.497675       -13.5424 
  76   2.0000      -0.497544       -13.5389 
  77   2.0000      -0.494557       -13.4576 
  78   2.0000      -0.494528       -13.4568 
  79   2.0000      -0.434539       -11.8244 
  80   2.0000      -0.432554       -11.7704 
  81   2.0000      -0.432524       -11.7696 
  82   2.0000      -0.424861       -11.5611 
  83   2.0000      -0.424853       -11.5608 
  84   2.0000      -0.423437       -11.5223 
  85   2.0000      -0.360336        -9.8052 
  86   2.0000      -0.343064        -9.3352 
  87   2.0000      -0.343024        -9.3342 
  88   2.0000      -0.236740        -6.4420 
  89   2.0000      -0.236734        -6.4419 
  90   2.0000      -0.235232        -6.4010 
  91   0.0000       0.023197         0.6312 
  92   0.0000       0.043206         1.1757 
  93   0.0000       0.043237         1.1765 
  94   0.0000       0.049996         1.3605 
  95   0.0000       0.060816         1.6549 
  96   0.0000       0.060820         1.6550 
  97   0.0000       0.067528         1.8375 
  98   0.0000       0.069415         1.8889 
  99   0.0000       0.069450         1.8898 
 100   0.0000       0.078857         2.1458 
 101   0.0000       0.079810         2.1717 
 102   0.0000       0.079820         2.1720 
 103   0.0000       0.082494         2.2448 
 104   0.0000       0.091057         2.4778 
 105   0.0000       0.091091         2.4787 
 106   0.0000       0.093961         2.5568 
 107   0.0000       0.100936         2.7466 
 108   0.0000       0.100985         2.7479 
 109   0.0000       0.108891         2.9631 
 110   0.0000       0.115121         3.1326 
 111   0.0000       0.115195         3.1346 
 112   0.0000       0.117396         3.1945 
 113   0.0000       0.122791         3.3413 
 114   0.0000       0.124075         3.3762 
 115   0.0000       0.127480         3.4689 
 116   0.0000       0.127557         3.4710 
 117   0.0000       0.133368         3.6291 
 118   0.0000       0.133558         3.6343 
 119   0.0000       0.141296         3.8449 
 120   0.0000       0.145045         3.9469 
 121   0.0000       0.145077         3.9477 
 122   0.0000       0.147526         4.0144 
 123   0.0000       0.155539         4.2324 
 124   0.0000       0.155715         4.2372 
 125   0.0000       0.156864         4.2685 
 126   0.0000       0.161140         4.3848 
 127   0.0000       0.161172         4.3857 
 128   0.0000       0.165632         4.5071 
 129   0.0000       0.170474         4.6388 
 130   0.0000       0.174109         4.7377 
 131   0.0000       0.175429         4.7737 
 132   0.0000       0.175490         4.7753 
 133   0.0000       0.177384         4.8269 
 134   0.0000       0.177438         4.8283 
 135   0.0000       0.182813         4.9746 
 136   0.0000       0.186470         5.0741 
 137   0.0000       0.186623         5.0783 
 138   0.0000       0.190463         5.1828 
 139   0.0000       0.191011         5.1977 
 140   0.0000       0.191101         5.2001 
 141   0.0000       0.201071         5.4714 
 142   0.0000       0.203204         5.5295 
 143   0.0000       0.203270         5.5312 
 144   0.0000       0.205784         5.5997 
 145   0.0000       0.205814         5.6005 
 146   0.0000       0.214821         5.8456 
 147   0.0000       0.215208         5.8561 
 148   0.0000       0.215265         5.8577 
 149   0.0000       0.220230         5.9928 
 150   0.0000       0.220309         5.9949 
 151   0.0000       0.221094         6.0163 
 152   0.0000       0.226459         6.1623 
 153   0.0000       0.226530         6.1642 
 154   0.0000       0.230046         6.2599 
 155   0.0000       0.238748         6.4967 
 156   0.0000       0.238798         6.4980 
 157   0.0000       0.239077         6.5056 
 158   0.0000       0.252760         6.8780 
 159   0.0000       0.252940         6.8828 
 160   0.0000       0.257837         7.0161 
 161   0.0000       0.261278         7.1097 
 162   0.0000       0.266655         7.2561 
 163   0.0000       0.266850         7.2613 
 164   0.0000       0.267297         7.2735 
 165   0.0000       0.268307         7.3010 
 166   0.0000       0.268363         7.3025 
 167   0.0000       0.273056         7.4302 
 168   0.0000       0.273244         7.4354 
 169   0.0000       0.275429         7.4948 
 170   0.0000       0.284773         7.7491 
 171   0.0000       0.286346         7.7919 
 172   0.0000       0.286503         7.7961 
 173   0.0000       0.290268         7.8986 
 174   0.0000       0.294468         8.0129 
 175   0.0000       0.294501         8.0138 
 176   0.0000       0.296362         8.0644 
 177   0.0000       0.306197         8.3321 
 178   0.0000       0.306265         8.3339 
 179   0.0000       0.311508         8.4766 
 180   0.0000       0.311559         8.4780 
 181   0.0000       0.315527         8.5859 
 182   0.0000       0.318100         8.6559 
 183   0.0000       0.318280         8.6608 
 184   0.0000       0.321213         8.7406 
 185   0.0000       0.322118         8.7653 
 186   0.0000       0.325906         8.8684 
 187   0.0000       0.325997         8.8708 
 188   0.0000       0.331703         9.0261 
 189   0.0000       0.331803         9.0288 
 190   0.0000       0.332997         9.0613 
 191   0.0000       0.334271         9.0960 
 192   0.0000       0.336015         9.1434 
 193   0.0000       0.338212         9.2032 
 194   0.0000       0.338303         9.2057 
 195   0.0000       0.345494         9.4014 
 196   0.0000       0.345635         9.4052 
 197   0.0000       0.352817         9.6007 
 198   0.0000       0.353022         9.6062 
 199   0.0000       0.354427         9.6445 
 200   0.0000       0.358670         9.7599 
 201   0.0000       0.360989         9.8230 
 202   0.0000       0.361101         9.8261 
 203   0.0000       0.363985         9.9045 
 204   0.0000       0.367833        10.0092 
 205   0.0000       0.368139        10.0176 
 206   0.0000       0.372271        10.1300 
 207   0.0000       0.375975        10.2308 
 208   0.0000       0.376075        10.2335 
 209   0.0000       0.384517        10.4632 
 210   0.0000       0.387227        10.5370 
 211   0.0000       0.387258        10.5378 
 212   0.0000       0.390316        10.6210 
 213   0.0000       0.390524        10.6267 
 214   0.0000       0.391178        10.6445 
 215   0.0000       0.396908        10.8004 
 216   0.0000       0.399505        10.8711 
 217   0.0000       0.399664        10.8754 
 218   0.0000       0.401669        10.9300 
 219   0.0000       0.405038        11.0216 
 220   0.0000       0.405261        11.0277 
 221   0.0000       0.415719        11.3123 
 222   0.0000       0.416292        11.3279 
 223   0.0000       0.416657        11.3378 
 224   0.0000       0.420386        11.4393 
 225   0.0000       0.428202        11.6520 
 226   0.0000       0.429743        11.6939 
 227   0.0000       0.429940        11.6993 
 228   0.0000       0.434933        11.8351 
 229   0.0000       0.435073        11.8390 
 230   0.0000       0.441066        12.0020 
 231   0.0000       0.445184        12.1141 
 232   0.0000       0.445345        12.1185 
 233   0.0000       0.457610        12.4522 
 234   0.0000       0.460912        12.5420 
 235   0.0000       0.461496        12.5580 
 236   0.0000       0.461612        12.5611 
 237   0.0000       0.468132        12.7385 
 238   0.0000       0.469259        12.7692 
 239   0.0000       0.471160        12.8209 
 240   0.0000       0.471421        12.8280 
 241   0.0000       0.475048        12.9267 
 242   0.0000       0.475218        12.9313 
 243   0.0000       0.480018        13.0620 
 244   0.0000       0.480254        13.0684 
 245   0.0000       0.484460        13.1828 
 246   0.0000       0.484515        13.1843 
 247   0.0000       0.484678        13.1887 
 248   0.0000       0.489265        13.3136 
 249   0.0000       0.489635        13.3236 
 250   0.0000       0.497714        13.5435 
 251   0.0000       0.497873        13.5478 
 252   0.0000       0.498728        13.5711 
 253   0.0000       0.502111        13.6631 
 254   0.0000       0.505156        13.7460 
 255   0.0000       0.505346        13.7512 
 256   0.0000       0.511950        13.9309 
 257   0.0000       0.512468        13.9450 
 258   0.0000       0.512877        13.9561 
 259   0.0000       0.522830        14.2269 
 260   0.0000       0.522948        14.2301 
 261   0.0000       0.529805        14.4167 
 262   0.0000       0.536332        14.5943 
 263   0.0000       0.536554        14.6004 
 264   0.0000       0.541429        14.7330 
 265   0.0000       0.541477        14.7343 
 266   0.0000       0.545880        14.8542 
 267   0.0000       0.546258        14.8644 
 268   0.0000       0.546595        14.8736 
 269   0.0000       0.548974        14.9383 
 270   0.0000       0.552552        15.0357 
 271   0.0000       0.552812        15.0428 
 272   0.0000       0.560098        15.2410 
 273   0.0000       0.560137        15.2421 
 274   0.0000       0.563084        15.3223 
 275   0.0000       0.568370        15.4661 
 276   0.0000       0.568685        15.4747 
 277   0.0000       0.579373        15.7655 
 278   0.0000       0.580820        15.8049 
 279   0.0000       0.581026        15.8105 
 280   0.0000       0.591212        16.0877 
 281   0.0000       0.592461        16.1217 
 282   0.0000       0.592567        16.1246 
 283   0.0000       0.595428        16.2024 
 284   0.0000       0.595675        16.2091 
 285   0.0000       0.597013        16.2456 
 286   0.0000       0.601670        16.3723 
 287   0.0000       0.606588        16.5061 
 288   0.0000       0.606903        16.5147 
 289   0.0000       0.607877        16.5412 
 290   0.0000       0.610291        16.6069 
 291   0.0000       0.610395        16.6097 
 292   0.0000       0.613698        16.6996 
 293   0.0000       0.623007        16.9529 
 294   0.0000       0.623244        16.9593 
 295   0.0000       0.624184        16.9849 
 296   0.0000       0.631357        17.1801 
 297   0.0000       0.633273        17.2322 
 298   0.0000       0.636865        17.3300 
 299   0.0000       0.637113        17.3367 
 300   0.0000       0.641689        17.4612 
 301   0.0000       0.646275        17.5860 
 302   0.0000       0.648928        17.6582 
 303   0.0000       0.649069        17.6621 
 304   0.0000       0.658072        17.9071 
 305   0.0000       0.658490        17.9184 
 306   0.0000       0.662385        18.0244 
 307   0.0000       0.669085        18.2067 
 308   0.0000       0.669287        18.2122 
 309   0.0000       0.674727        18.3603 
 310   0.0000       0.675467        18.3804 
 311   0.0000       0.675739        18.3878 
 312   0.0000       0.679439        18.4885 
 313   0.0000       0.682995        18.5852 
 314   0.0000       0.683100        18.5881 
 315   0.0000       0.688904        18.7460 
 316   0.0000       0.689397        18.7595 
 317   0.0000       0.690441        18.7879 
 318   0.0000       0.699472        19.0336 
 319   0.0000       0.701622        19.0921 
 320   0.0000       0.704030        19.1576 
 321   0.0000       0.704085        19.1591 
 322   0.0000       0.707641        19.2559 
 323   0.0000       0.707756        19.2590 
 324   0.0000       0.709747        19.3132 
 325   0.0000       0.714056        19.4305 
 326   0.0000       0.714642        19.4464 
 327   0.0000       0.714730        19.4488 
 328   0.0000       0.721104        19.6222 
 329   0.0000       0.721300        19.6276 
 330   0.0000       0.723256        19.6808 
 331   0.0000       0.723555        19.6889 
 332   0.0000       0.727723        19.8023 
 333   0.0000       0.738911        20.1068 
 334   0.0000       0.739320        20.1179 
 335   0.0000       0.739668        20.1274 
 336   0.0000       0.747078        20.3290 
 337   0.0000       0.751867        20.4594 
 338   0.0000       0.752224        20.4690 
 339   0.0000       0.752774        20.4840 
 340   0.0000       0.757412        20.6102 
 341   0.0000       0.757551        20.6140 
 342   0.0000       0.762729        20.7549 
 343   0.0000       0.762964        20.7613 
 344   0.0000       0.769596        20.9418 
 345   0.0000       0.769872        20.9493 
 346   0.0000       0.773440        21.0464 
 347   0.0000       0.775101        21.0916 
 348   0.0000       0.775735        21.1088 
 349   0.0000       0.775894        21.1131 
 350   0.0000       0.779308        21.2060 
 351   0.0000       0.787969        21.4417 
 352   0.0000       0.788217        21.4485 
 353   0.0000       0.797965        21.7137 
 354   0.0000       0.799453        21.7542 
 355   0.0000       0.799526        21.7562 
 356   0.0000       0.799688        21.7606 
 357   0.0000       0.802627        21.8406 
 358   0.0000       0.803154        21.8549 
 359   0.0000       0.803919        21.8757 
 360   0.0000       0.809829        22.0366 
 361   0.0000       0.810121        22.0445 
 362   0.0000       0.812636        22.1130 
 363   0.0000       0.814237        22.1565 
 364   0.0000       0.816729        22.2243 
 365   0.0000       0.817049        22.2330 
 366   0.0000       0.821194        22.3458 
 367   0.0000       0.824033        22.4231 
 368   0.0000       0.824125        22.4256 
 369   0.0000       0.837977        22.8025 
 370   0.0000       0.838064        22.8049 
 371   0.0000       0.838356        22.8128 
 372   0.0000       0.839802        22.8522 
 373   0.0000       0.840192        22.8628 
 374   0.0000       0.845410        23.0048 
 375   0.0000       0.853569        23.2268 
 376   0.0000       0.853723        23.2310 
 377   0.0000       0.858218        23.3533 
 378   0.0000       0.858456        23.3598 
 379   0.0000       0.859643        23.3921 
 380   0.0000       0.863849        23.5065 
 381   0.0000       0.869131        23.6503 
 382   0.0000       0.872348        23.7378 
 383   0.0000       0.872547        23.7432 
 384   0.0000       0.877267        23.8716 
 385   0.0000       0.877536        23.8790 
 386   0.0000       0.885832        24.1047 
 387   0.0000       0.888904        24.1883 
 388   0.0000       0.889014        24.1913 
 389   0.0000       0.893189        24.3049 
 390   0.0000       0.895393        24.3649 
 391   0.0000       0.895877        24.3781 
 392   0.0000       0.902503        24.5583 
 393   0.0000       0.904431        24.6108 
 394   0.0000       0.904748        24.6195 
 395   0.0000       0.913277        24.8515 
 396   0.0000       0.914810        24.8932 
 397   0.0000       0.915153        24.9026 
 398   0.0000       0.915978        24.9250 
 399   0.0000       0.922006        25.0891 
 400   0.0000       0.922150        25.0930 
 401   0.0000       0.930115        25.3097 
 402   0.0000       0.930612        25.3232 
 403   0.0000       0.932561        25.3763 
 404   0.0000       0.937329        25.5060 
 405   0.0000       0.942031        25.6340 
 406   0.0000       0.942181        25.6380 
 407   0.0000       0.952245        25.9119 
 408   0.0000       0.958868        26.0921 
 409   0.0000       0.959219        26.1017 
 410   0.0000       0.968312        26.3491 
 411   0.0000       0.972371        26.4596 
 412   0.0000       0.972765        26.4703 
 413   0.0000       0.983731        26.7687 
 414   0.0000       0.989004        26.9122 
 415   0.0000       0.989600        26.9284 
 416   0.0000       0.991327        26.9754 
 417   0.0000       0.995261        27.0824 
 418   0.0000       1.002386        27.2763 
 419   0.0000       1.002454        27.2782 
 420   0.0000       1.009895        27.4806 
 421   0.0000       1.010408        27.4946 
 422   0.0000       1.014406        27.6034 
 423   0.0000       1.015228        27.6258 
 424   0.0000       1.019893        27.7527 
 425   0.0000       1.022198        27.8154 
 426   0.0000       1.025584        27.9076 
 427   0.0000       1.036182        28.1959 
 428   0.0000       1.036559        28.2062 
 429   0.0000       1.044681        28.4272 
 430   0.0000       1.045043        28.4371 
 431   0.0000       1.048767        28.5384 
 432   0.0000       1.057521        28.7766 
 433   0.0000       1.057820        28.7847 
 434   0.0000       1.062749        28.9189 
 435   0.0000       1.070188        29.1213 
 436   0.0000       1.070333        29.1252 
 437   0.0000       1.076767        29.3003 
 438   0.0000       1.076946        29.3052 
 439   0.0000       1.081519        29.4296 
 440   0.0000       1.084409        29.5083 
 441   0.0000       1.090542        29.6752 
 442   0.0000       1.090857        29.6837 
 443   0.0000       1.092523        29.7291 
 444   0.0000       1.105286        30.0764 
 445   0.0000       1.105577        30.0843 
 446   0.0000       1.113994        30.3133 
 447   0.0000       1.126183        30.6450 
 448   0.0000       1.126815        30.6622 
 449   0.0000       1.127861        30.6907 
 450   0.0000       1.131288        30.7839 
 451   0.0000       1.131442        30.7881 
 452   0.0000       1.140863        31.0445 
 453   0.0000       1.151213        31.3261 
 454   0.0000       1.151403        31.3313 
 455   0.0000       1.152612        31.3642 
 456   0.0000       1.168015        31.7833 
 457   0.0000       1.170323        31.8461 
 458   0.0000       1.170643        31.8548 
 459   0.0000       1.179089        32.0846 
 460   0.0000       1.182959        32.1900 
 461   0.0000       1.183004        32.1912 
 462   0.0000       1.192828        32.4585 
 463   0.0000       1.193086        32.4655 
 464   0.0000       1.197630        32.5892 
 465   0.0000       1.203359        32.7451 
 466   0.0000       1.213455        33.0198 
 467   0.0000       1.213751        33.0278 
 468   0.0000       1.225993        33.3610 
 469   0.0000       1.226232        33.3675 
 470   0.0000       1.230771        33.4910 
 471   0.0000       1.233249        33.5584 
 472   0.0000       1.233428        33.5633 
 473   0.0000       1.246114        33.9085 
 474   0.0000       1.246490        33.9187 
 475   0.0000       1.246882        33.9294 
 476   0.0000       1.270195        34.5638 
 477   0.0000       1.270394        34.5692 
 478   0.0000       1.272956        34.6389 
 479   0.0000       1.278001        34.7762 
 480   0.0000       1.278598        34.7924 
 481   0.0000       1.278903        34.8007 
 482   0.0000       1.298989        35.3473 
 483   0.0000       1.300856        35.3981 
 484   0.0000       1.301018        35.4025 
 485   0.0000       1.303982        35.4832 
 486   0.0000       1.313362        35.7384 
 487   0.0000       1.313665        35.7466 
 488   0.0000       1.317798        35.8591 
 489   0.0000       1.325321        36.0638 
 490   0.0000       1.325470        36.0679 
 491   0.0000       1.327614        36.1262 
 492   0.0000       1.337291        36.3895 
 493   0.0000       1.337415        36.3929 
 494   0.0000       1.351795        36.7842 
 495   0.0000       1.362559        37.0771 
 496   0.0000       1.371417        37.3181 
 497   0.0000       1.371627        37.3239 
 498   0.0000       1.384721        37.6802 
 499   0.0000       1.385160        37.6921 
 500   0.0000       1.387884        37.7662 
 501   0.0000       1.388068        37.7712 
 502   0.0000       1.388808        37.7914 
 503   0.0000       1.399597        38.0850 
 504   0.0000       1.399962        38.0949 
 505   0.0000       1.406140        38.2630 
 506   0.0000       1.412294        38.4305 
 507   0.0000       1.414746        38.4972 
 508   0.0000       1.414811        38.4990 
 509   0.0000       1.430095        38.9149 
 510   0.0000       1.430333        38.9213 
 511   0.0000       1.440580        39.2002 
 512   0.0000       1.447814        39.3970 
 513   0.0000       1.448073        39.4041 
 514   0.0000       1.448285        39.4098 
 515   0.0000       1.456638        39.6371 
 516   0.0000       1.456781        39.6410 
 517   0.0000       1.460690        39.7474 
 518   0.0000       1.468122        39.9496 
 519   0.0000       1.468305        39.9546 
 520   0.0000       1.473541        40.0971 
 521   0.0000       1.482321        40.3360 
 522   0.0000       1.482657        40.3451 
 523   0.0000       1.483060        40.3561 
 524   0.0000       1.492721        40.6190 
 525   0.0000       1.495600        40.6974 
 526   0.0000       1.495841        40.7039 
 527   0.0000       1.503400        40.9096 
 528   0.0000       1.503463        40.9113 
 529   0.0000       1.509635        41.0793 
 530   0.0000       1.519856        41.3574 
 531   0.0000       1.519921        41.3591 
 532   0.0000       1.529713        41.6256 
 533   0.0000       1.531818        41.6829 
 534   0.0000       1.532178        41.6927 
 535   0.0000       1.543643        42.0047 
 536   0.0000       1.550648        42.1953 
 537   0.0000       1.550855        42.2009 
 538   0.0000       1.555853        42.3369 
 539   0.0000       1.556853        42.3641 
 540   0.0000       1.564672        42.5769 
 541   0.0000       1.564940        42.5842 
 542   0.0000       1.573870        42.8272 
 543   0.0000       1.575915        42.8828 
 544   0.0000       1.576449        42.8974 
 545   0.0000       1.576916        42.9101 
 546   0.0000       1.588486        43.2249 
 547   0.0000       1.588924        43.2368 
 548   0.0000       1.596539        43.4440 
 549   0.0000       1.603277        43.6274 
 550   0.0000       1.603618        43.6367 
 551   0.0000       1.612699        43.8838 
 552   0.0000       1.617043        44.0020 
 553   0.0000       1.617395        44.0116 
 554   0.0000       1.622733        44.1568 
 555   0.0000       1.623206        44.1697 
 556   0.0000       1.627830        44.2955 
 557   0.0000       1.633014        44.4366 
 558   0.0000       1.638374        44.5824 
 559   0.0000       1.638790        44.5937 
 560   0.0000       1.639223        44.6055 
 561   0.0000       1.657911        45.1141 
 562   0.0000       1.658550        45.1314 
 563   0.0000       1.659034        45.1446 
 564   0.0000       1.669695        45.4347 
 565   0.0000       1.670219        45.4490 
 566   0.0000       1.680474        45.7280 
 567   0.0000       1.680915        45.7400 
 568   0.0000       1.698814        46.2271 
 569   0.0000       1.699323        46.2409 
 570   0.0000       1.703287        46.3488 
 571   0.0000       1.704626        46.3852 
 572   0.0000       1.717335        46.7311 
 573   0.0000       1.724928        46.9377 
 574   0.0000       1.729297        47.0566 
 575   0.0000       1.729722        47.0681 
 576   0.0000       1.736431        47.2507 
 577   0.0000       1.743454        47.4418 
 578   0.0000       1.743605        47.4459 
 579   0.0000       1.753938        47.7271 
 580   0.0000       1.763329        47.9826 
 581   0.0000       1.763458        47.9861 
 582   0.0000       1.767534        48.0971 
 583   0.0000       1.767859        48.1059 
 584   0.0000       1.789033        48.6821 
 585   0.0000       1.791089        48.7380 
 586   0.0000       1.791577        48.7513 
 587   0.0000       1.799309        48.9617 
 588   0.0000       1.809274        49.2328 
 589   0.0000       1.809610        49.2420 
 590   0.0000       1.821606        49.5684 
 591   0.0000       1.830577        49.8125 
 592   0.0000       1.830793        49.8184 
 593   0.0000       1.835188        49.9380 
 594   0.0000       1.851623        50.3852 
 595   0.0000       1.851720        50.3879 
 596   0.0000       1.852184        50.4005 
 597   0.0000       1.861521        50.6546 
 598   0.0000       1.867687        50.8224 
 599   0.0000       1.867910        50.8284 
 600   0.0000       1.872219        50.9457 
 601   0.0000       1.876266        51.0558 
 602   0.0000       1.876940        51.0741 
 603   0.0000       1.883809        51.2611 
 604   0.0000       1.891027        51.4575 
 605   0.0000       1.891243        51.4633 
 606   0.0000       1.900006        51.7018 
 607   0.0000       1.903487        51.7965 
 608   0.0000       1.903715        51.8027 
 609   0.0000       1.917499        52.1778 
 610   0.0000       1.917735        52.1842 
 611   0.0000       1.943697        52.8907 
 612   0.0000       1.952534        53.1311 
 613   0.0000       1.952943        53.1423 
 614   0.0000       1.953145        53.1478 
 615   0.0000       1.956442        53.2375 
 616   0.0000       1.956858        53.2488 
 617   0.0000       1.978815        53.8463 
 618   0.0000       1.983908        53.9849 
 619   0.0000       1.984168        53.9919 
 620   0.0000       1.986244        54.0485 
 621   0.0000       2.010221        54.7009 
 622   0.0000       2.010367        54.7049 
 623   0.0000       2.016988        54.8850 
 624   0.0000       2.024545        55.0907 
 625   0.0000       2.024758        55.0965 
 626   0.0000       2.033463        55.3333 
 627   0.0000       2.048234        55.7353 
 628   0.0000       2.051614        55.8272 
 629   0.0000       2.051918        55.8355 
 630   0.0000       2.055443        55.9314 
 631   0.0000       2.055889        55.9436 
 632   0.0000       2.071044        56.3560 
 633   0.0000       2.071279        56.3624 
 634   0.0000       2.083176        56.6861 
 635   0.0000       2.084634        56.7258 
 636   0.0000       2.084881        56.7325 
 637   0.0000       2.096766        57.0559 
 638   0.0000       2.112584        57.4863 
 639   0.0000       2.112747        57.4908 
 640   0.0000       2.113132        57.5012 
 641   0.0000       2.119586        57.6769 
 642   0.0000       2.120150        57.6922 
 643   0.0000       2.122507        57.7564 
 644   0.0000       2.132332        58.0237 
 645   0.0000       2.137529        58.1651 
 646   0.0000       2.137808        58.1727 
 647   0.0000       2.168438        59.0062 
 648   0.0000       2.169783        59.0428 
 649   0.0000       2.169903        59.0461 
 650   0.0000       2.184652        59.4474 
 651   0.0000       2.185030        59.4577 
 652   0.0000       2.185200        59.4623 
 653   0.0000       2.199850        59.8610 
 654   0.0000       2.200088        59.8674 
 655   0.0000       2.201516        59.9063 
 656   0.0000       2.209522        60.1241 
 657   0.0000       2.209621        60.1268 
 658   0.0000       2.222769        60.4846 
 659   0.0000       2.225584        60.5612 
 660   0.0000       2.235565        60.8328 
 661   0.0000       2.235842        60.8404 
 662   0.0000       2.241879        61.0046 
 663   0.0000       2.262071        61.5541 
 664   0.0000       2.262465        61.5648 
 665   0.0000       2.276744        61.9533 
 666   0.0000       2.276860        61.9565 
 667   0.0000       2.282625        62.1134 
 668   0.0000       2.283153        62.1278 
 669   0.0000       2.283543        62.1384 
 670   0.0000       2.316611        63.0382 
 671   0.0000       2.333889        63.5084 
 672   0.0000       2.334046        63.5126 
 673   0.0000       2.343248        63.7630 
 674   0.0000       2.371211        64.5239 
 675   0.0000       2.386670        64.9446 
 676   0.0000       2.387156        64.9578 
 677   0.0000       2.403003        65.3890 
 678   0.0000       2.403484        65.4021 
 679   0.0000       2.417759        65.7906 
 680   0.0000       2.431801        66.1727 
 681   0.0000       2.455119        66.8072 
 682   0.0000       2.455406        66.8150 
 683   0.0000       2.470948        67.2379 
 684   0.0000       2.473697        67.3127 
 685   0.0000       2.473843        67.3167 
 686   0.0000       2.485889        67.6445 
 687   0.0000       2.486123        67.6509 
 688   0.0000       2.498526        67.9883 
 689   0.0000       2.498801        67.9958 
 690   0.0000       2.507871        68.2426 
 691   0.0000       2.533488        68.9397 
 692   0.0000       2.548325        69.3435 
 693   0.0000       2.557492        69.5929 
 694   0.0000       2.558138        69.6105 
 695   0.0000       2.566002        69.8245 
 696   0.0000       2.566211        69.8302 
 697   0.0000       2.574389        70.0527 
 698   0.0000       2.583757        70.3076 
 699   0.0000       2.584056        70.3157 
 700   0.0000       2.585946        70.3672 
 701   0.0000       2.589089        70.4527 
 702   0.0000       2.605065        70.8874 
 703   0.0000       2.605181        70.8906 
 704   0.0000       2.622583        71.3641 
 705   0.0000       2.635544        71.7168 
 706   0.0000       2.635942        71.7276 
 707   0.0000       2.663089        72.4663 
 708   0.0000       2.672297        72.7169 
 709   0.0000       2.672540        72.7235 
 710   0.0000       2.696361        73.3717 
 711   0.0000       2.734117        74.3991 
 712   0.0000       2.734397        74.4067 
 713   0.0000       2.782593        75.7182 
 714   0.0000       2.782742        75.7222 
 715   0.0000       2.792048        75.9755 
 716   0.0000       2.807500        76.3960 
 717   0.0000       2.821792        76.7849 
 718   0.0000       2.821988        76.7902 
 719   0.0000       2.833112        77.0929 
 720   0.0000       2.849643        77.5427 
 721   0.0000       2.849858        77.5486 
 722   0.0000       2.904658        79.0398 
 723   0.0000       2.910369        79.1952 
 724   0.0000       2.910689        79.2039 
 725   0.0000       2.932457        79.7962 
 726   0.0000       2.932830        79.8064 
 727   0.0000       2.934904        79.8628 
 728   0.0000       2.959969        80.5448 
 729   0.0000       2.984244        81.2054 
 730   0.0000       2.984299        81.2069 
 731   0.0000       2.989529        81.3492 
 732   0.0000       2.996527        81.5396 
 733   0.0000       3.002866        81.7121 
 734   0.0000       3.003255        81.7227 
 735   0.0000       3.010478        81.9193 
 736   0.0000       3.020462        82.1910 
 737   0.0000       3.020565        82.1938 
 738   0.0000       3.021057        82.2071 
 739   0.0000       3.033547        82.5470 
 740   0.0000       3.033906        82.5568 
 741   0.0000       3.042160        82.7814 
 742   0.0000       3.042516        82.7911 
 743   0.0000       3.053999        83.1035 
 744   0.0000       3.056717        83.1775 
 745   0.0000       3.066769        83.4510 
 746   0.0000       3.067257        83.4643 
 747   0.0000       3.083515        83.9067 
 748   0.0000       3.083702        83.9118 
 749   0.0000       3.090024        84.0838 
 750   0.0000       3.098822        84.3232 
 751   0.0000       3.098921        84.3259 
 752   0.0000       3.104117        84.4673 
 753   0.0000       3.105230        84.4976 
 754   0.0000       3.108301        84.5812 
 755   0.0000       3.108474        84.5859 
 756   0.0000       3.123716        85.0006 
 757   0.0000       3.131390        85.2095 
 758   0.0000       3.137323        85.3709 
 759   0.0000       3.137446        85.3742 
 760   0.0000       3.145910        85.6046 
 761   0.0000       3.146139        85.6108 
 762   0.0000       3.164934        86.1222 
 763   0.0000       3.171423        86.2988 
 764   0.0000       3.171638        86.3047 
 765   0.0000       3.176328        86.4323 
 766   0.0000       3.185220        86.6742 
 767   0.0000       3.190214        86.8101 
 768   0.0000       3.190509        86.8182 
 769   0.0000       3.198064        87.0238 
 770   0.0000       3.198286        87.0298 
 771   0.0000       3.199472        87.0620 
 772   0.0000       3.204534        87.1998 
 773   0.0000       3.204565        87.2006 
 774   0.0000       3.228192        87.8436 
 775   0.0000       3.230018        87.8932 
 776   0.0000       3.230160        87.8971 
 777   0.0000       3.230337        87.9019 
 778   0.0000       3.240658        88.1828 
 779   0.0000       3.240687        88.1836 
 780   0.0000       3.245626        88.3180 
 781   0.0000       3.252160        88.4958 
 782   0.0000       3.252560        88.5066 
 783   0.0000       3.264860        88.8414 
 784   0.0000       3.265046        88.8464 
 785   0.0000       3.273399        89.0737 
 786   0.0000       3.273764        89.0837 
 787   0.0000       3.273863        89.0863 
 788   0.0000       3.290264        89.5326 
 789   0.0000       3.291147        89.5567 
 790   0.0000       3.291214        89.5585 
 791   0.0000       3.300570        89.8131 
 792   0.0000       3.301099        89.8275 
 793   0.0000       3.301195        89.8301 
 794   0.0000       3.312694        90.1430 
 795   0.0000       3.314065        90.1803 
 796   0.0000       3.314438        90.1904 
 797   0.0000       3.337593        90.8205 
 798   0.0000       3.337868        90.8280 
 799   0.0000       3.340806        90.9079 
 800   0.0000       3.347649        91.0942 
 801   0.0000       3.348004        91.1038 
 802   0.0000       3.348820        91.1260 
 803   0.0000       3.355392        91.3049 
 804   0.0000       3.376529        91.8800 
 805   0.0000       3.376888        91.8898 
 806   0.0000       3.387011        92.1652 
 807   0.0000       3.388306        92.2005 
 808   0.0000       3.388714        92.2116 
 809   0.0000       3.402611        92.5897 
 810   0.0000       3.405482        92.6679 
 811   0.0000       3.405547        92.6696 
 812   0.0000       3.414481        92.9128 
 813   0.0000       3.421048        93.0915 
 814   0.0000       3.429598        93.3241 
 815   0.0000       3.429750        93.3282 
 816   0.0000       3.437426        93.5371 
 817   0.0000       3.437700        93.5446 
 818   0.0000       3.440843        93.6301 
[...]
 34 C s       :     2.686073  s :     2.686073
      pz      :     0.939526  p :     2.820358
      px      :     0.942744
      py      :     0.938088
      dz2     :     0.112370  d :     0.495096
      dxz     :     0.109366
      dyz     :     0.048403
      dx2y2   :     0.149796
      dxy     :     0.075160
      f0      :     0.003260  f :     0.020822
      f+1     :     0.001648
      f-1     :     0.004294
      f+2     :     0.002228
      f-2     :     0.003154
      f+3     :     0.002152
      f-3     :     0.004085
 35 H s       :     0.713763  s :     0.713763
      pz      :     0.099536  p :     0.307427
      px      :     0.118840
      py      :     0.089051
      dz2     :     0.006369  d :     0.029610
      dxz     :     0.006776
      dyz     :     0.003334
      dx2y2   :     0.007297
      dxy     :     0.005834
 36 H s       :     0.710076  s :     0.710076
      pz      :     0.084435  p :     0.318628
      px      :     0.090347
      py      :     0.143845
      dz2     :     0.002606  d :     0.029941
      dxz     :     0.000064
      dyz     :     0.009849
      dx2y2   :     0.007604
      dxy     :     0.009817
 37 H s       :     0.707435  s :     0.707435
      pz      :     0.135729  p :     0.311509
      px      :     0.088286
      py      :     0.087495
      dz2     :     0.010072  d :     0.030040
      dxz     :     0.009224
      dyz     :     0.008665
      dx2y2   :     0.001340
      dxy     :     0.000739
 38 C s       :     2.685729  s :     2.685729
      pz      :     0.946833  p :     2.814601
      px      :     0.936770
      py      :     0.930998
      dz2     :     0.130531  d :     0.502560
      dxz     :     0.142885
      dyz     :     0.077152
      dx2y2   :     0.098330
      dxy     :     0.053662
      f0      :     0.003561  f :     0.020934
      f+1     :     0.002150
      f-1     :     0.002950
      f+2     :     0.003249
      f-2     :     0.003460
      f+3     :     0.000469
      f-3     :     0.005095
 39 H s       :     0.710841  s :     0.710841
      pz      :     0.096053  p :     0.309130
      px      :     0.122577
      py      :     0.090500
      dz2     :     0.004494  d :     0.029717
      dxz     :     0.008058
      dyz     :     0.002393
      dx2y2   :     0.007887
      dxy     :     0.006884
 40 H s       :     0.707349  s :     0.707349
      pz      :     0.107341  p :     0.337085
      px      :     0.134818
      py      :     0.094926
      dz2     :     0.006511  d :     0.029870
      dxz     :     0.007482
      dyz     :     0.003192
      dx2y2   :     0.006549
      dxy     :     0.006137
 41 H s       :     0.708179  s :     0.708179
      pz      :     0.095110  p :     0.337401
      px      :     0.087713
      py      :     0.154579
      dz2     :     0.002667  d :     0.029902
      dxz     :     0.000064
      dyz     :     0.010071
      dx2y2   :     0.007454
      dxy     :     0.009647
 42 C s       :     2.684926  s :     2.684926
      pz      :     0.939731  p :     2.815185
      px      :     0.934024
      py      :     0.941430
      dz2     :     0.080988  d :     0.496917
      dxz     :     0.081519
      dyz     :     0.101436
      dx2y2   :     0.116874
      dxy     :     0.116101
      f0      :     0.003824  f :     0.020854
      f+1     :     0.000225
      f-1     :     0.004028
      f+2     :     0.003121
      f-2     :     0.003582
      f+3     :     0.002348
      f-3     :     0.003726
 43 H s       :     0.712454  s :     0.712454
      pz      :     0.094635  p :     0.307406
      px      :     0.122410
      py      :     0.090361
      dz2     :     0.005662  d :     0.029662
      dxz     :     0.007533
      dyz     :     0.002697
      dx2y2   :     0.006374
      dxy     :     0.007396
 44 H s       :     0.703105  s :     0.703105
      pz      :     0.142872  p :     0.325367
      px      :     0.085616
      py      :     0.096879
      dz2     :     0.009384  d :     0.029954
      dxz     :     0.008551
      dyz     :     0.009176
      dx2y2   :     0.001780
      dxy     :     0.001062
 45 H s       :     0.711085  s :     0.711085
      pz      :     0.099315  p :     0.332303
      px      :     0.131724
      py      :     0.101264
      dz2     :     0.005502  d :     0.029810
      dxz     :     0.006735
      dyz     :     0.003373
      dx2y2   :     0.007410
      dxy     :     0.006790


                      *****************************
                      * MAYER POPULATION ANALYSIS *
                      *****************************

  NA   - Mulliken gross atomic population
  ZA   - Total nuclear charge
  QA   - Mulliken gross atomic charge
  VA   - Mayer's total valence
  BVA  - Mayer's bonded valence
  FA   - Mayer's free valence

  ATOM       NA         ZA         QA         VA         BVA        FA
  0 Mo    14.1214    14.0000    -0.1214     5.3667     5.3667     0.0000
  1 C      5.7866     6.0000     0.2134     3.0208     3.0208    -0.0000
  2 C      5.7853     6.0000     0.2147     3.0223     3.0223    -0.0000
  3 C      5.7926     6.0000     0.2074     3.0164     3.0164    -0.0000
  4 O      8.4531     8.0000    -0.4531     1.9616     1.9616     0.0000
  5 O      8.4533     8.0000    -0.4533     1.9616     1.9616    -0.0000
  6 O      8.4533     8.0000    -0.4533     1.9626     1.9626     0.0000
  7 P     13.7688    15.0000     1.2312     2.6303     2.6303    -0.0000
  8 P     13.7773    15.0000     1.2227     2.6324     2.6324    -0.0000
  9 P     13.7765    15.0000     1.2235     2.6476     2.6476    -0.0000
 10 C      6.5824     6.0000    -0.5824     3.9556     3.9556     0.0000
 11 H      0.8630     1.0000     0.1370     1.0162     1.0162     0.0000
 12 H      0.9401     1.0000     0.0599     1.0903     1.0903     0.0000
 13 H      0.9536     1.0000     0.0464     1.0981     1.0981     0.0000
 14 C      6.4882     6.0000    -0.4882     4.0994     4.0994     0.0000
 15 H      0.9575     1.0000     0.0425     1.0659     1.0659    -0.0000
 16 H      0.8809     1.0000     0.1191     1.0686     1.0686     0.0000
 17 H      0.9968     1.0000     0.0032     1.1687     1.1687    -0.0000
 18 C      6.4605     6.0000    -0.4605     4.0308     4.0308     0.0000
 19 H      0.8849     1.0000     0.1151     1.0534     1.0534     0.0000
 20 H      0.9460     1.0000     0.0540     1.1238     1.1238     0.0000
 21 H      0.9865     1.0000     0.0135     1.0934     1.0934     0.0000
 22 C      6.5823     6.0000    -0.5823     3.9554     3.9554    -0.0000
 23 H      0.8635     1.0000     0.1365     1.0163     1.0163     0.0000
 24 H      0.9391     1.0000     0.0609     1.0889     1.0889    -0.0000
 25 H      0.9533     1.0000     0.0467     1.0977     1.0977    -0.0000
 26 C      6.4920     6.0000    -0.4920     4.1025     4.1025    -0.0000
 27 H      0.8817     1.0000     0.1183     1.0700     1.0700    -0.0000
 28 H      0.9949     1.0000     0.0051     1.1661     1.1661     0.0000
 29 H      0.9581     1.0000     0.0419     1.0648     1.0648    -0.0000
 30 C      6.4617     6.0000    -0.4617     4.0332     4.0332    -0.0000
 31 H      0.8855     1.0000     0.1145     1.0542     1.0542    -0.0000
 32 H      0.9454     1.0000     0.0546     1.1234     1.1234     0.0000
 33 H      0.9875     1.0000     0.0125     1.0927     1.0927    -0.0000
 34 C      6.5828     6.0000    -0.5828     3.9530     3.9530    -0.0000
 35 H      0.8639     1.0000     0.1361     1.0167     1.0167    -0.0000
 36 H      0.9399     1.0000     0.0601     1.0900     1.0900    -0.0000
 37 H      0.9528     1.0000     0.0472     1.0980     1.0980    -0.0000
 38 C      6.4912     6.0000    -0.4912     4.0999     4.0999     0.0000
 39 H      0.8810     1.0000     0.1190     1.0698     1.0698     0.0000
 40 H      0.9951     1.0000     0.0049     1.1662     1.1662     0.0000
 41 H      0.9585     1.0000     0.0415     1.0663     1.0663     0.0000
 42 C      6.4618     6.0000    -0.4618     4.0343     4.0343    -0.0000
 43 H      0.8867     1.0000     0.1133     1.0546     1.0546    -0.0000
 44 H      0.9461     1.0000     0.0539     1.1237     1.1237    -0.0000
 45 H      0.9866     1.0000     0.0134     1.0918     1.0918    -0.0000

  Mayer bond orders larger than 0.100000
B(  0-Mo,  1-C ) :   1.3491 B(  0-Mo,  2-C ) :   1.3506 B(  0-Mo,  3-C ) :   1.3352 
B(  0-Mo,  7-P ) :   0.1374 B(  0-Mo,  8-P ) :   0.1421 B(  0-Mo,  9-P ) :   0.1604 
B(  0-Mo, 10-C ) :   0.1113 B(  0-Mo, 22-C ) :   0.1119 B(  0-Mo, 34-C ) :   0.1105 
B(  1-C ,  2-C ) :  -0.1518 B(  1-C ,  3-C ) :  -0.1500 B(  1-C ,  5-O ) :   1.8566 
B(  2-C ,  3-C ) :  -0.1503 B(  2-C ,  6-O ) :   1.8576 B(  3-C ,  4-O ) :   1.8566 
B(  7-P ,  8-P ) :   0.2093 B(  7-P ,  9-P ) :   0.2069 B(  7-P , 34-C ) :   0.6081 
B(  7-P , 38-C ) :   0.7420 B(  7-P , 42-C ) :   0.6567 B(  8-P ,  9-P ) :   0.2091 
B(  8-P , 22-C ) :   0.6083 B(  8-P , 26-C ) :   0.7434 B(  8-P , 30-C ) :   0.6556 
B(  9-P , 10-C ) :   0.6109 B(  9-P , 14-C ) :   0.7429 B(  9-P , 18-C ) :   0.6575 
B( 10-C , 11-H ) :   0.9936 B( 10-C , 12-H ) :   1.0118 B( 10-C , 13-H ) :   1.0361 
B( 10-C , 14-C ) :   0.1002 B( 10-C , 18-C ) :   0.1209 B( 14-C , 15-H ) :   0.9981 
B( 14-C , 16-H ) :   1.0265 B( 14-C , 17-H ) :   1.0310 B( 14-C , 18-C ) :   0.1350 
B( 18-C , 19-H ) :   1.0135 B( 18-C , 20-H ) :   1.0020 B( 18-C , 21-H ) :   1.0073 
B( 22-C , 23-H ) :   0.9941 B( 22-C , 24-H ) :   1.0107 B( 22-C , 25-H ) :   1.0369 
B( 22-C , 30-C ) :   0.1213 B( 26-C , 27-H ) :   1.0276 B( 26-C , 28-H ) :   1.0312 
B( 26-C , 29-H ) :   0.9985 B( 26-C , 30-C ) :   0.1357 B( 30-C , 31-H ) :   1.0142 
B( 30-C , 32-H ) :   1.0025 B( 30-C , 33-H ) :   1.0081 B( 34-C , 35-H ) :   0.9941 
B( 34-C , 36-H ) :   1.0114 B( 34-C , 37-H ) :   1.0350 B( 34-C , 38-C ) :   0.1001 
B( 34-C , 42-C ) :   0.1212 B( 38-C , 39-H ) :   1.0272 B( 38-C , 40-H ) :   1.0307 
B( 38-C , 41-H ) :   0.9984 B( 38-C , 42-C ) :   0.1355 B( 42-C , 43-H ) :   1.0152 
B( 42-C , 44-H ) :   1.0024 B( 42-C , 45-H ) :   1.0076 

-------
TIMINGS
-------

Total SCF time: 0 days 0 hours 3 min 26 sec 

Total time                  ....     206.165 sec
Sum of individual times     ....     204.197 sec  ( 99.0%)

Fock matrix formation       ....     190.016 sec  ( 92.2%)
  XC integration            ....      14.439 sec  (  7.6% of F)
    Basis function eval.    ....       2.422 sec  ( 16.8% of XC)
    Density eval.           ....       5.551 sec  ( 38.4% of XC)
    XC-Functional eval.     ....       0.096 sec  (  0.7% of XC)
    XC-Potential eval.      ....       4.191 sec  ( 29.0% of XC)
Diagonalization             ....       4.277 sec  (  2.1%)
Density matrix formation    ....       0.232 sec  (  0.1%)
Population analysis         ....       0.362 sec  (  0.2%)
Initial guess               ....       3.184 sec  (  1.5%)
Orbital Transformation      ....       0.000 sec  (  0.0%)
Orbital Orthonormalization  ....       0.000 sec  (  0.0%)
DIIS solution               ....       4.435 sec  (  2.2%)
Grid generation             ....       1.690 sec  (  0.8%)


           ************************************************************
           *        Program running with 24 parallel MPI-processes    *
           *              working on a common directory               *
           ************************************************************

------------------------------------------------------------------------------
                                ORCA  MP2 
------------------------------------------------------------------------------

Freezing NCore=60 chemical core electrons

-------------
RI-MP2 ENERGY
-------------
Dimension of the basis                    ... 1223
Memory devoted to MP2                     ... 5000 MB   
Data format for buffers                   ... DOUBLE
Compression type for matrix containers    ... UNCOMPRESSED
Scaling for aa/bb pairs                   ...   4.000e-01
Scaling for ab pairs                      ...   4.700e-01
Overall scaling of the MP2 energy         ...   1.000e+00
Calculating two index integrals           ... done (    0.070 sec)
Cholesky decomposition of V**-1           ... done (    0.928 sec)

-----------------
RI-TRANSFORMATION (AUX index driven)
-----------------

Dimension of the orbital-basis         ... 1223
Dimension of the aux-basis             ... 3026
Transformation of internal/external MOs...   30-  90 to   91-1222
Number Format for Storage              ... Double (8 Byte)
Integral mode                          ... Direct

First Phase: integral generation and transformation of MO indices
  Aux angular momentum 0               ... done (    0.603 sec)
  Aux angular momentum 1               ... done (    1.153 sec)
  Aux angular momentum 2               ... done (    1.470 sec)
  Aux angular momentum 3               ... done (    1.249 sec)
  Aux angular momentum 4               ... done (    0.556 sec)
  Aux angular momentum 5               ... done (    0.360 sec)
  Aux angular momentum 6               ... done (    0.470 sec)
Closing buffer VIA ( 1.56 GB; CompressionRatio= 1.00)
  Phase 1 completed in     6.037 sec
Second Phase: sorting and transformation of aux index

IA-Transformation
Memory available                       ... 4811 MB 
Max. # MO pairs treated in a batch     ... 3    
# of internal orbitals                 ... 61
# batches for internal orbitals        ... 1
Closing buffer IAV ( 0.08 GB; CompressionRatio= 1.00)
(ia|v) transformation done in     1.438 sec

  Phase 2 completed in     5.078 sec
RI-Integral transformation completed in    11.125 sec
Opening buffers                              ... done

Starting loop over batches of integrals:

Operator 0  - window                       ... ( 30- 90)x( 91-1222)
Operator 0  - Memory available             ...  5000 MB
Operator 0  - Memory needed per MO         ...  26.1 MB
Operator 0  - Number of orbitals per batch ... 3
Operator 0  - Number of batches            ... 1

OPERATOR  0   PASS   0:  MOs    30 ...   32 +   33 ...   35 +   36 ...   38 +   39 ...   41
                            +   42 ...   44 +   45 ...   47 +   48 ...   50 +   51 ...   53
                            +   54 ...   56 +   57 ...   59 +   60 ...   62 +   63 ...   65
                            +   66 ...   68 +   69 ...   71 +   72 ...   74 +   75 ...   77
                            +   78 ...   80 +   81 ...   83 +   84 ...   86 +   87 ...   89
                            +   90 ...   90
  Reading integrals       ... ok
  Internal MO  32
Time spent in pair loops =     0.950 sec
Deleting buffer (Ka|jb)[aa] ...done

-----------------------------------------------
 RI-MP2 CORRELATION ENERGY:     -2.020564722 Eh
-----------------------------------------------


-------
TIMINGS
-------

Total time                :   35.145 sec
Integral trafo            :   11.136 sec ( 31.7%)
I/O of integrals          :    0.071 sec (  0.2%)
K(i,j) Operators          :    0.690 sec (  2.0%)
T(i,j) pair energies      :    0.079 sec (  0.2%)
V-calculation             :    0.070 sec (  0.2%)
V**(-1/2)                 :    0.928 sec (  2.6%)
Gamma(ia|P)               :    0.000 sec (  0.0%)
Gamma-Trafo               :    0.000 sec (  0.0%)
D(virtual)                :    0.000 sec (  0.0%)
D(internal)               :    0.000 sec (  0.0%)
W(virtual)                :    0.000 sec (  0.0%)
W(internal)               :    0.000 sec (  0.0%)
L(virtual)                :    0.000 sec (  0.0%)
L(internal)               :    0.000 sec (  0.0%)
G(D)                      :    0.000 sec (  0.0%)
G(Z)                      :    0.000 sec (  0.0%)
Z-Vector Solution         :    0.000 sec (  0.0%)
Z-Vector Solution         :    0.000 sec (  0.0%)
3-Index Derivative 
+ Separable RIJ part      :    0.000 sec (  0.0%)
2-Index Derivative 
+ Separable RIJ part      :    0.000 sec (  0.0%)
Separable Gradient (X)    :    0.000 sec (  0.0%)


---------------------------------------
MP2 TOTAL ENERGY:    -1790.431992567 Eh
---------------------------------------


-------------------------------------------------------------------------------
                          DFT DISPERSION CORRECTION                            
                                                                               
                              DFTD3 V3.1  Rev 1                                
                          USING Becke-Johnson damping                          
-------------------------------------------------------------------------------
The DSD-BLYP/2013 functional is recognized
Active option DFTDOPT                   ...         4   

molecular C6(AA) [au] = 29142.349168 


            DFT-D V3
 parameters
 s6 scaling factor         :     0.5700 
 a1 scaling factor         :     0.0000 
 s8 scaling factor         :     0.0000 
 a2 scaling factor         :     5.4000 
 ad hoc parameters k1-k3   :    16.0000     1.3333    -4.0000 

 Edisp/kcal,au: -49.857393165384  -0.079452804950 
 E6   /kcal   : -49.857393165 
 E8   /kcal   :  -0.000000000 
 % E8         :   0.000000000 

-------------------------   ----------------
Dispersion correction           -0.079452805
-------------------------   ----------------


-------------------------   --------------------
FINAL SINGLE POINT ENERGY     -1790.511445371978
-------------------------   --------------------


                            ***************************************
                            *     ORCA property calculations      *
                            ***************************************


  WARNING: The energy has been calculated at the MP2 level but the densities
           used in the property calculations are still SCF densities
           MP2 response densities have not been calculated 
           use %mp2 Density relaxed end
           or  %mp2 Density unrelaxed end

                                    ---------------------
                                    Active property flags
                                    ---------------------
   (+) Dipole Moment


------------------------------------------------------------------------------
                       ORCA ELECTRIC PROPERTIES CALCULATION
------------------------------------------------------------------------------

Dipole Moment Calculation                       ... on
Quadrupole Moment Calculation                   ... off
Polarizability Calculation                      ... off
GBWName                                         ... MOR37_pr38.gbw
Electron density file                           ... MOR37_pr38.scfp
The origin for moment calculation is the CENTER OF MASS  = ( 0.000065, -0.000237 -0.171282)

-------------
DIPOLE MOMENT
-------------
                                X             Y             Z
Electronic contribution:      0.03071      -0.08884     -63.04300
Nuclear contribution   :     -0.03125       0.09337      66.31953
                        -----------------------------------------
Total Dipole Moment    :     -0.00055       0.00453       3.27653
                        -----------------------------------------
Magnitude (a.u.)       :      3.27653
Magnitude (Debye)      :      8.32828



--------------------
Rotational spectrum 
--------------------
 
Rotational constants in cm-1:     0.008677     0.008672     0.007610 
Rotational constants in MHz :   260.126059   259.983430   228.154635 

 Dipole components along the rotational axes: 
x,y,z [a.u.] :    -0.000726     0.004970     3.276526 
x,y,z [Debye]:    -0.001845     0.012632     8.328268 

 

Timings for individual modules:

Sum of individual times         ...      249.795 sec (=   4.163 min)
GTO integral calculation        ...        7.178 sec (=   0.120 min)   2.9 %
SCF iterations                  ...      206.618 sec (=   3.444 min)  82.7 %
MP2 module                      ...       35.999 sec (=   0.600 min)  14.4 %
                             ****ORCA TERMINATED NORMALLY****
TOTAL RUN TIME: 0 days 0 hours 4 minutes 10 seconds 552 msec
