
                                 *****************
                                 * O   R   C   A *
                                 *****************

           --- An Ab Initio, DFT and Semiempirical electronic structure package ---

                  #######################################################
                  #                        -***-                        #
                  #          Department of theory and spectroscopy      #
                  #               Directorship: Frank Neese             #
                  #        Max Planck Institute fuer Kohlenforschung    #
                  #                Kaiser Wilhelm Platz 1               #
                  #                 D-45470 Muelheim/Ruhr               #
                  #                      Germany                        #
                  #                                                     #
                  #                  All rights reserved                #
                  #                        -***-                        #
                  #######################################################


                         Program Version 4.2.0 -  RELEASE  -


 With contributions from (in alphabetic order):
   Daniel Aravena         : Magnetic Suceptibility
   Michael Atanasov       : Ab Initio Ligand Field Theory (pilot matlab implementation)
   Alexander A. Auer      : GIAO ZORA, VPT2
   Ute Becker             : Parallelization
   Giovanni Bistoni       : ED, misc. LED, open-shell LED, HFLED
   Martin Brehm           : Molecular dynamics
   Dmytro Bykov           : SCF Hessian
   Vijay G. Chilkuri      : MRCI spin determinant printing, contributions to CSF-ICE
   Dipayan Datta          : RHF DLPNO-CCSD density
   Achintya Kumar Dutta   : EOM-CC, STEOM-CC
   Dmitry Ganyushin       : Spin-Orbit,Spin-Spin,Magnetic field MRCI
   Miquel Garcia          : C-PCM Hessian, Gaussian charge scheme
   Yang Guo               : DLPNO-NEVPT2, CIM, IAO-localization
   Andreas Hansen         : Spin unrestricted coupled pair/coupled cluster methods
   Benjamin Helmich-Paris : CASSCF linear response (MC-RPA)
   Lee Huntington         : MR-EOM, pCC
   Robert Izsak           : Overlap fitted RIJCOSX, COSX-SCS-MP3, EOM
   Christian Kollmar      : KDIIS, OOCD, Brueckner-CCSD(T), CCSD density
   Simone Kossmann        : Meta GGA functionals, TD-DFT gradient, OOMP2, MP2 Hessian
   Martin Krupicka        : AUTO-CI
   Lucas Lang             : DCDCAS
   Dagmar Lenk            : GEPOL surface, SMD
   Dimitrios Liakos       : Extrapolation schemes; Compound Job, initial MDCI parallelization
   Dimitrios Manganas     : Further ROCIS development; embedding schemes
   Dimitrios Pantazis     : SARC Basis sets
   Taras Petrenko         : DFT Hessian,TD-DFT gradient, ASA, ECA, R-Raman, ABS, FL, XAS/XES, NRVS
   Peter Pinski           : DLPNO-MP2, DLPNO-MP2 Gradient
   Christoph Reimann      : Effective Core Potentials
   Marius Retegan         : Local ZFS, SOC
   Christoph Riplinger    : Optimizer, TS searches, QM/MM, DLPNO-CCSD(T), (RO)-DLPNO pert. Triples
   Tobias Risthaus        : Range-separated hybrids, TD-DFT gradient, RPA, STAB
   Michael Roemelt        : Original ROCIS implementation
   Masaaki Saitow         : Open-shell DLPNO-CCSD energy and density
   Barbara Sandhoefer     : DKH picture change effects
   Avijit Sen             : IP-ROCIS
   Kantharuban Sivalingam : CASSCF convergence, NEVPT2, FIC-MRCI
   Bernardo de Souza      : ESD, SOC TD-DFT
   Georgi Stoychev        : AutoAux, RI-MP2 NMR
   Willem Van den Heuvel  : Paramagnetic NMR
   Boris Wezisla          : Elementary symmetry handling
   Frank Wennmohs         : Technical directorship


 We gratefully acknowledge several colleagues who have allowed us to
 interface, adapt or use parts of their codes:
   Stefan Grimme, W. Hujo, H. Kruse,             : VdW corrections, initial TS optimization,
                  C. Bannwarth                     DFT functionals, gCP, sTDA/sTD-DF
   Ed Valeev, F. Pavosevic, A. Kumar             : LibInt (2-el integral package), F12 methods
   Garnet Chan, S. Sharma, J. Yang, R. Olivares  : DMRG
   Ulf Ekstrom                                   : XCFun DFT Library
   Mihaly Kallay                                 : mrcc  (arbitrary order and MRCC methods)
   Andreas Klamt, Michael Diedenhofen            : otool_cosmo (COSMO solvation model)
   Jiri Pittner, Ondrej Demel                    : Mk-CCSD
   Frank Weinhold                                : gennbo (NPA and NBO analysis)
   Christopher J. Cramer and Donald G. Truhlar   : smd solvation model
   Lars Goerigk                                  : TD-DFT with DH, B97 family of functionals
   V. Asgeirsson, H. Jonsson                     : NEB implementation
   FAccTs GmbH                                   : IRC, NEB, NEB-TS, Multilevel, MM, QM/MM, CI optimization
   S Lehtola, MJT Oliveira, MAL Marques          : LibXC Library


 Your calculation uses the libint2 library for the computation of 2-el integrals
 For citations please refer to: http://libint.valeyev.net

 Your ORCA version has been built with support for libXC version: 4.2.3
 For citations please refer to: https://tddft.org/programs/libxc/

 This ORCA versions uses:
   CBLAS   interface :  Fast vector & matrix operations
   LAPACKE interface :  Fast linear algebra routines
   SCALAPACK package :  Parallel linear algebra routines


Your calculation utilizes the atom-pairwise dispersion correction
with the Becke-Johnson damping scheme (D3BJ)
Cite in your paper:
S.Grimme, S.Ehrlich, L.Goerigk, J Comput Chem, (2011), 32, 1456–1465 
S.Grimme, J.Antony, S.Ehrlich and H.Krieg, J.Chem.Phys., 132, (2010), 154104 
   

----- Orbital basis set information -----
Your calculation utilizes the basis: def2-TZVPPD
   F. Weigend and R. Ahlrichs, Phys. Chem. Chem. Phys. 7, 3297 (2005).
   D. Rappoport and F. Furche, J. Chem. Phys. 133 134105 (2010).

----- AuxC basis set information -----
Your calculation utilizes the auxiliary basis: def2-TZVPPD/C
   A. Hellweg, C. Hattig, S. Hofener and W. Klopper, Theor. Chem. Acc. 117, 587 (2007).

----- AuxJK basis set information -----
Your calculation utilizes the auxiliary basis: def2/JK
   H-Ba, Hf-Rn: F. Weigend, J. Comput. Chem. 29, 167 (2008).

cite the ECPs for Mo [Def2-ECP] as follows:
Ce-Yb(ecp-28): M. Dolg, H. Stoll, H.Preuss, J. Chem. Phys., 1989, 90, 1730-1734.
Y-Cd(ecp-28), Hf-Hg(ecp-46): D. Andrae,U. Haeussermann, M. Dolg, H. Stoll, H. Preuss, Theor. Chim. Acta, 1990, 77, 123-141.
In-Sb(ecp-28), Tl-Bi(ecp-46): B. Metz, H. Stoll, M. Dolg, J. Chem. Phys., 2000, 113, 2563-2569.
Te-Xe(ecp-28), Po-Rn(ecp-46): K. A. Peterson, D. Figgen, E. Goll, H. Stoll, M. Dolg, J. Chem. Phys., 2003, 119, 11113-11123.
Rb(ecp-28), Cs(ecp-46): T. Leininger, A. Nicklass, W. Kuechle, H. Stoll, M. Dolg, A. Bergner, Chem. Phys. Lett., 1996, 255, 274-280.
Sr(ecp-28), Ba(ecp-46): M. Kaupp, P. V. Schleyer, H. Stoll and H. Preuss, J. Chem. Phys., 1991, 94, 1360-1366.
La(ecp-46): M. Dolg, H. Stoll, A. Savin, H. Preuss, Theor. Chim. Acta, 1989, 75, 173-194.
Lu(ecp-28): X. Cao, M. Dolg, J. Chem. Phys., 2001, 115, 7348-7355.

ECP parameters for Mo [Def2-ECP] have been obtained from:
TURBOMOLE (7.0.2)

================================================================================
                                        WARNINGS
                       Please study these warnings very carefully!
================================================================================


WARNING: No MP2 level density has been requested!
         To caclulate MP2 level properties use
         %mp2 Density relaxed end
         or
         %mp2 Density unrelaxed end
         Otherwise for double-hybrid DFT only the energy is correct!

WARNING: There are different parametrizations of Gershom Martin's DSD-DFs
         for use with and without D3(BJ)!
         You are using the D3(BJ) parametrized version,
         consistent with the 2013 article (S. Kozuch and J. M. L. Martin, JCC 2013, 34, 2327)

WARNING: The frozen-core approximation is turned on by default for 
         the MP2 part of double-hybrid DFT.

INFO   : the flag for use of LIBINT has been found!

================================================================================
                                       INPUT FILE
================================================================================
NAME = MOR36_pr37.in
|  1> #
|  2> # MOR36_pr37 ri-DSD-BLYP/2013-D3BJ/Def2-TZVPPD
|  3> #
|  4> ! rijk ri-dsd-blyp/2013 d3bj def2-tzvppd def2/jk def2-tzvppd/c grid4 nofinalgrid
|  5> 
|  6> *xyz 0 1
|  7> Mo       0.000106   -0.000070   -0.471377 
|  8> C        0.514398   -1.514915   -1.646050 
|  9> C        1.055079    1.202350   -1.646249 
| 10> C       -1.568474    0.311983   -1.646660 
| 11> O       -2.484520    0.493946   -2.346732 
| 12> O        0.814970   -2.399453   -2.345765 
| 13> O        1.670957    1.904692   -2.346079 
| 14> N       -1.133555   -1.291008    0.811792 
| 15> N       -0.551576    1.627166    0.811584 
| 16> N        1.684684   -0.335905    0.812231 
| 17> C        2.623715   -0.523292    1.470917 
| 18> C       -0.858944    2.534303    1.469905 
| 19> C       -1.765652   -2.010491    1.470244 
| 20> C       -2.579903   -2.936733    2.238371 
| 21> H       -3.631237   -2.631169    2.207389 
| 22> H       -2.252645   -2.962558    3.282907 
| 23> H       -2.496617   -3.945451    1.819577 
| 24> C       -1.254401    3.702555    2.237857 
| 25> H       -0.464690    4.460832    2.206160 
| 26> H       -1.439592    3.432273    3.282594 
| 27> H       -2.170183    4.133961    1.819442 
| 28> C        3.832875   -0.764956    2.239344 
| 29> H        4.094105   -1.828181    2.208653 
| 30> H        3.691346   -0.468421    3.283785 
| 31> H        4.664793   -0.188419    1.820591 
| 32> *
| 33> 
| 34> %maxcore 5000
| 35> 
| 36> %pal
| 37> nprocs = 24
| 38> end
| 39> 
| 40> 
| 41>                          ****END OF INPUT****
================================================================================

                       ****************************
                       * Single Point Calculation *
                       ****************************

---------------------------------
CARTESIAN COORDINATES (ANGSTROEM)
---------------------------------
  Mo     0.000106   -0.000070   -0.471377
  C      0.514398   -1.514915   -1.646050
  C      1.055079    1.202350   -1.646249
  C     -1.568474    0.311983   -1.646660
  O     -2.484520    0.493946   -2.346732
  O      0.814970   -2.399453   -2.345765
  O      1.670957    1.904692   -2.346079
  N     -1.133555   -1.291008    0.811792
  N     -0.551576    1.627166    0.811584
  N      1.684684   -0.335905    0.812231
  C      2.623715   -0.523292    1.470917
  C     -0.858944    2.534303    1.469905
  C     -1.765652   -2.010491    1.470244
  C     -2.579903   -2.936733    2.238371
  H     -3.631237   -2.631169    2.207389
  H     -2.252645   -2.962558    3.282907
  H     -2.496617   -3.945451    1.819577
  C     -1.254401    3.702555    2.237857
  H     -0.464690    4.460832    2.206160
  H     -1.439592    3.432273    3.282594
  H     -2.170183    4.133961    1.819442
  C      3.832875   -0.764956    2.239344
  H      4.094105   -1.828181    2.208653
  H      3.691346   -0.468421    3.283785
  H      4.664793   -0.188419    1.820591

----------------------------
CARTESIAN COORDINATES (A.U.)
----------------------------
  NO LB      ZA    FRAG     MASS         X           Y           Z
   0 Mo   14.0000*   0    95.940    0.000200   -0.000132   -0.890773
   1 C     6.0000    0    12.011    0.972071   -2.862774   -3.110584
   2 C     6.0000    0    12.011    1.993810    2.272112   -3.110960
   3 C     6.0000    0    12.011   -2.963986    0.589562   -3.111736
   4 O     8.0000    0    15.999   -4.695062    0.933423   -4.434681
   5 O     8.0000    0    15.999    1.540070   -4.534309   -4.432853
   6 O     8.0000    0    15.999    3.157651    3.599346   -4.433447
   7 N     7.0000    0    14.007   -2.142109   -2.439652    1.534065
   8 N     7.0000    0    14.007   -1.042328    3.074898    1.533671
   9 N     7.0000    0    14.007    3.183591   -0.634768    1.534894
  10 C     6.0000    0    12.011    4.958103   -0.988879    2.779630
  11 C     6.0000    0    12.011   -1.623169    4.789139    2.777718
  12 C     6.0000    0    12.011   -3.336599   -3.799277    2.778359
  13 C     6.0000    0    12.011   -4.875310   -5.549621    4.229908
  14 H     1.0000    0     1.008   -6.862043   -4.972189    4.171361
  15 H     1.0000    0     1.008   -4.256882   -5.598423    6.203795
  16 H     1.0000    0     1.008   -4.717922   -7.455822    3.438502
  17 C     6.0000    0    12.011   -2.370474    6.996815    4.228937
  18 H     1.0000    0     1.008   -0.878137    8.429751    4.169038
  19 H     1.0000    0     1.008   -2.720435    6.486056    6.203204
  20 H     1.0000    0     1.008   -4.101052    7.812054    3.438247
  21 C     6.0000    0    12.011    7.243084   -1.445557    4.231747
  22 H     1.0000    0     1.008    7.736737   -3.454761    4.173749
  23 H     1.0000    0     1.008    6.975633   -0.885187    6.205454
  24 H     1.0000    0     1.008    8.815181   -0.356060    3.440418
* core charge reduced due to ECP

--------------------------------
INTERNAL COORDINATES (ANGSTROEM)
--------------------------------
 Mo     0   0   0     0.000000000000     0.00000000     0.00000000
 C      1   0   0     1.984718693472     0.00000000     0.00000000
 C      1   2   0     1.984718142083    88.52821499     0.00000000
 C      1   2   3     1.984719229840    88.52852908    88.56446471
 O      4   1   2     1.167198189113   179.45594567   317.10735893
 O      2   1   3     1.167198390100   179.45602869   317.02965672
 O      3   1   2     1.167198365638   179.45611457    45.61657349
 N      1   2   3     2.144348587643    91.81459848   180.30593702
 N      1   2   3     2.144350474232   179.54049399   226.71307953
 N      1   2   3     2.144350177320    91.78699754   268.23068328
 C     10   1   2     1.162222161777   177.75398670    44.05698539
 C      9   1   3     1.162221649787   177.75375258    44.07509113
 C      8   1   2     1.162222629707   177.75457570   315.42287600
 C     13   8   1     1.452910190512   177.40669965   359.91582242
 H     14  13   8     1.095277326514   110.18997744   285.66233562
 H     14  13   8     1.094906472940   110.60293907   165.46241910
 H     14  13   8     1.095370702436   110.01906894    45.38593472
 C     12   9   1     1.452910612755   177.40636648   359.88894389
 H     18  12   9     1.095277212426   110.18976884   285.69273374
 H     18  12   9     1.094907971098   110.60286905   165.49299331
 H     18  12   9     1.095371590185   110.01929112    45.41639584
 C     11  10   1     1.452910681640   177.40661353   359.90192026
 H     22  11  10     1.095276426755   110.19009660   285.63634270
 H     22  11  10     1.094906601746   110.60282438   165.43643606
 H     22  11  10     1.095370506314   110.01900162    45.36002498

---------------------------
INTERNAL COORDINATES (A.U.)
---------------------------
 Mo     0   0   0     0.000000000000     0.00000000     0.00000000
 C      1   0   0     3.750574783536     0.00000000     0.00000000
 C      1   2   0     3.750573741562    88.52821499     0.00000000
 C      1   2   3     3.750575797125    88.52852908    88.56446471
 O      4   1   2     2.205684921433   179.45594567   317.10735893
 O      2   1   3     2.205685301244   179.45602869   317.02965672
 O      3   1   2     2.205685255016   179.45611457    45.61657349
 N      1   2   3     4.052231566306    91.81459848   180.30593702
 N      1   2   3     4.052235131444   179.54049399   226.71307953
 N      1   2   3     4.052234570361    91.78699754   268.23068328
 C     10   1   2     2.196281592533   177.75398670    44.05698539
 C      9   1   3     2.196280625012   177.75375258    44.07509113
 C      8   1   2     2.196282476791   177.75457570   315.42287600
 C     13   8   1     2.745602357251   177.40669965   359.91582242
 H     14  13   8     2.069774187805   110.18997744   285.66233562
 H     14  13   8     2.069073376113   110.60293907   165.46241910
 H     14  13   8     2.069950642726   110.01906894    45.38593472
 C     12   9   1     2.745603155175   177.40636648   359.88894389
 H     18  12   9     2.069773972209   110.18976884   285.69273374
 H     18  12   9     2.069076207223   110.60286905   165.49299331
 H     18  12   9     2.069952320328   110.01929112    45.41639584
 C     11  10   1     2.745603285349   177.40661353   359.90192026
 H     22  11  10     2.069772487507   110.19009660   285.63634270
 H     22  11  10     2.069073619522   110.60282438   165.43643606
 H     22  11  10     2.069950272108   110.01900162    45.36002498

---------------------
BASIS SET INFORMATION
---------------------
There are 5 groups of distinct atoms

 Group   1 Type Mo  : 7s7p5d2f1g contracted to 6s4p3d2f1g pattern {211111/4111/311/11/1}
 Group   2 Type C   : 12s6p3d1f contracted to 6s3p3d1f pattern {621111/411/111/1}
 Group   3 Type O   : 12s7p3d1f contracted to 6s4p3d1f pattern {621111/4111/111/1}
 Group   4 Type N   : 12s6p3d1f contracted to 6s3p3d1f pattern {621111/411/111/1}
 Group   5 Type H   : 5s3p1d contracted to 3s3p1d pattern {311/111/1}

Atom   0Mo   basis set group =>   1
Atom   1C    basis set group =>   2
Atom   2C    basis set group =>   2
Atom   3C    basis set group =>   2
Atom   4O    basis set group =>   3
Atom   5O    basis set group =>   3
Atom   6O    basis set group =>   3
Atom   7N    basis set group =>   4
Atom   8N    basis set group =>   4
Atom   9N    basis set group =>   4
Atom  10C    basis set group =>   2
Atom  11C    basis set group =>   2
Atom  12C    basis set group =>   2
Atom  13C    basis set group =>   2
Atom  14H    basis set group =>   5
Atom  15H    basis set group =>   5
Atom  16H    basis set group =>   5
Atom  17C    basis set group =>   2
Atom  18H    basis set group =>   5
Atom  19H    basis set group =>   5
Atom  20H    basis set group =>   5
Atom  21C    basis set group =>   2
Atom  22H    basis set group =>   5
Atom  23H    basis set group =>   5
Atom  24H    basis set group =>   5
---------------------------------
AUXILIARY/C BASIS SET INFORMATION
---------------------------------
There are 5 groups of distinct atoms

 Group   1 Type Mo  : 8s7p6d5f4g3h1i contracted to 8s7p6d5f4g3h1i pattern {11111111/1111111/111111/11111/1111/111/1}
 Group   2 Type C   : 9s7p6d4f1g contracted to 9s7p5d4f1g pattern {111111111/1111111/21111/1111/1}
 Group   3 Type O   : 9s7p6d4f1g contracted to 9s7p5d4f1g pattern {111111111/1111111/21111/1111/1}
 Group   4 Type N   : 9s7p6d4f1g contracted to 9s7p5d4f1g pattern {111111111/1111111/21111/1111/1}
 Group   5 Type H   : 5s4p3d1f contracted to 5s4p3d1f pattern {11111/1111/111/1}

Atom   0Mo   basis set group =>   1
Atom   1C    basis set group =>   2
Atom   2C    basis set group =>   2
Atom   3C    basis set group =>   2
Atom   4O    basis set group =>   3
Atom   5O    basis set group =>   3
Atom   6O    basis set group =>   3
Atom   7N    basis set group =>   4
Atom   8N    basis set group =>   4
Atom   9N    basis set group =>   4
Atom  10C    basis set group =>   2
Atom  11C    basis set group =>   2
Atom  12C    basis set group =>   2
Atom  13C    basis set group =>   2
Atom  14H    basis set group =>   5
Atom  15H    basis set group =>   5
Atom  16H    basis set group =>   5
Atom  17C    basis set group =>   2
Atom  18H    basis set group =>   5
Atom  19H    basis set group =>   5
Atom  20H    basis set group =>   5
Atom  21C    basis set group =>   2
Atom  22H    basis set group =>   5
Atom  23H    basis set group =>   5
Atom  24H    basis set group =>   5
----------------------------------
AUXILIARY/JK BASIS SET INFORMATION
----------------------------------
There are 5 groups of distinct atoms

 Group   1 Type Mo  : 13s12p10d9f6g3h2i contracted to 11s10p9d8f6g3h2i pattern {31111111111/3111111111/211111111/21111111/111111/111/11}
 Group   2 Type C   : 14s10p6d2f1g contracted to 10s8p5d1f1g pattern {5111111111/31111111/21111/2/1}
 Group   3 Type O   : 14s10p6d2f1g contracted to 10s8p4d2f1g pattern {5111111111/31111111/3111/11/1}
 Group   4 Type N   : 14s10p6d2f1g contracted to 10s8p4d2f1g pattern {5111111111/31111111/3111/11/1}
 Group   5 Type H   : 4s2p2d contracted to 2s2p2d pattern {31/11/11}

Atom   0Mo   basis set group =>   1
Atom   1C    basis set group =>   2
Atom   2C    basis set group =>   2
Atom   3C    basis set group =>   2
Atom   4O    basis set group =>   3
Atom   5O    basis set group =>   3
Atom   6O    basis set group =>   3
Atom   7N    basis set group =>   4
Atom   8N    basis set group =>   4
Atom   9N    basis set group =>   4
Atom  10C    basis set group =>   2
Atom  11C    basis set group =>   2
Atom  12C    basis set group =>   2
Atom  13C    basis set group =>   2
Atom  14H    basis set group =>   5
Atom  15H    basis set group =>   5
Atom  16H    basis set group =>   5
Atom  17C    basis set group =>   2
Atom  18H    basis set group =>   5
Atom  19H    basis set group =>   5
Atom  20H    basis set group =>   5
Atom  21C    basis set group =>   2
Atom  22H    basis set group =>   5
Atom  23H    basis set group =>   5
Atom  24H    basis set group =>   5
-------------------------
ECP PARAMETER INFORMATION
-------------------------

 Group 1, Type Mo ECP Def2-ECP (replacing 28 core electrons, lmax=3)

Atom   0Mo   ECP group =>   1



           ************************************************************
           *        Program running with 24 parallel MPI-processes    *
           *              working on a common directory               *
           ************************************************************
------------------------------------------------------------------------------
                           ORCA GTO INTEGRAL CALCULATION
                           -- RI-GTO INTEGRALS CHOSEN --
------------------------------------------------------------------------------

                         BASIS SET STATISTICS AND STARTUP INFO

Gaussian basis set:
 # of primitive gaussian shells          ...  436
 # of primitive gaussian functions       ... 1036
 # of contracted shells                  ...  277
 # of contracted basis functions         ...  773
 Highest angular momentum                ...    4
 Maximum contraction depth               ...    6
Auxiliary gaussian basis set:
 # of primitive gaussian shells          ...  622
 # of primitive gaussian functions       ... 1910
 # of contracted shells                  ...  478
 # of contracted aux-basis functions     ... 1554
 Highest angular momentum                ...    6
 Maximum contraction depth               ...    5
Ratio of auxiliary to basis functions    ...  2.01
Integral package used                  ... LIBINT
 One Electron integrals                  
   ECP integrals                         ... done
 Ordering auxiliary basis shells         ... done
 Integral threshhold             Thresh  ...  1.000e-10
 Primitive cut-off               TCut    ...  1.000e-11
 Pre-screening matrix                    ... done
 Shell pair data                         ... 
 Ordering of the shell pairs             ... done (   0.005 sec) 29881 of 38503 pairs
 Determination of significant pairs      ... done (   0.000 sec)
 Creation of shell pair data             ... done (   0.003 sec)
 Storage of shell pair data              ... done (   0.020 sec)
 Shell pair data done in (   0.028 sec)
 Computing two index integrals           ... done
 Cholesky decomposition of the V-matrix  ... done


Timings:
 Total evaluation time                   ...   2.556 sec (  0.043 min)
 One electron matrix time                ...   1.951 sec (  0.033 min) = 76.3%
 Schwartz matrix evaluation time         ...   0.331 sec (  0.006 min) = 12.9%
 Two index repulsion integral time       ...   0.114 sec (  0.002 min) =  4.5%
 Cholesky decomposition of V             ...   0.100 sec (  0.002 min) =  3.9%
 Three index repulsion integral time     ...   0.000 sec (  0.000 min) =  0.0%



           ************************************************************
           *        Program running with 24 parallel MPI-processes    *
           *              working on a common directory               *
           ************************************************************
-------------------------------------------------------------------------------
                                 ORCA SCF
-------------------------------------------------------------------------------

------------
SCF SETTINGS
------------
Hamiltonian:
 Density Functional     Method          .... DFT(GTOs)
 Exchange Functional    Exchange        .... B88
   X-Alpha parameter    XAlpha          ....  0.666667
   Becke's b parameter  XBeta           ....  0.004200
 Correlation Functional Correlation     .... LYP
 LDA part of GGA corr.  LDAOpt          .... VWN-5
 Gradients option       PostSCFGGA      .... off
 Hybrid DFT is turned on
   Fraction HF Exchange ScalHFX         ....  0.710000
   Scaling of DF-GGA-X  ScalDFX         ....  0.290000
   Scaling of DF-GGA-C  ScalDFC         ....  0.540000
   Scaling of DF-LDA-C  ScalLDAC        ....  0.540000
   Perturbative correction              ....  1.000000
   Density functional embedding theory  .... OFF
 RI-approximation to the Coulomb term is turned on
   Number of auxiliary basis functions  .... 1554
   RI-JK (J+K treated both via RI)      .... on


General Settings:
 Integral files         IntName         .... MOR36_pr37
 Hartree-Fock type      HFTyp           .... RHF
 Total Charge           Charge          ....    0
 Multiplicity           Mult            ....    1
 Number of Electrons    NEL             ....  122
 Basis Dimension        Dim             ....  773
 Nuclear Repulsion      ENuc            ....   1067.4966403648 Eh

Convergence Acceleration:
 DIIS                   CNVDIIS         .... on
   Start iteration      DIISMaxIt       ....    12
   Startup error        DIISStart       ....  0.200000
   # of expansion vecs  DIISMaxEq       ....     5
   Bias factor          DIISBfac        ....   1.050
   Max. coefficient     DIISMaxC        ....  10.000
 Newton-Raphson         CNVNR           .... off
 SOSCF                  CNVSOSCF        .... off
 Level Shifting         CNVShift        .... on
   Level shift para.    LevelShift      ....    0.2500
   Turn off err/grad.   ShiftErr        ....    0.0010
 Zerner damping         CNVZerner       .... off
 Static damping         CNVDamp         .... on
   Fraction old density DampFac         ....    0.7000
   Max. Damping (<1)    DampMax         ....    0.9800
   Min. Damping (>=0)   DampMin         ....    0.0000
   Turn off err/grad.   DampErr         ....    0.1000
 Fernandez-Rico         CNVRico         .... off

SCF Procedure:
 Maximum # iterations   MaxIter         ....   125
 SCF integral mode      SCFMode         .... Direct
   Integral package                     .... LIBINT
 Reset frequency        DirectResetFreq ....    20
 Integral Threshold     Thresh          ....  1.000e-10 Eh
 Primitive CutOff       TCut            ....  1.000e-11 Eh

Convergence Tolerance:
 Convergence Check Mode ConvCheckMode   .... Total+1el-Energy
 Convergence forced     ConvForced      .... 0
 Energy Change          TolE            ....  1.000e-06 Eh
 1-El. energy change                    ....  1.000e-03 Eh
 DIIS Error             TolErr          ....  1.000e-06


Diagonalization of the overlap matrix:
Smallest eigenvalue                        ... 4.649e-06
Time for diagonalization                   ...    0.094 sec
Threshold for overlap eigenvalues          ... 1.000e-08
Number of eigenvalues below threshold      ... 0
Time for construction of square roots      ...    0.081 sec
Total time needed                          ...    0.177 sec

-------------------
DFT GRID GENERATION
-------------------

General Integration Accuracy     IntAcc      ...  4.670
Radial Grid Type                 RadialGrid  ... Gauss-Chebyshev
Angular Grid (max. acc.)         AngularGrid ... Lebedev-302
Angular grid pruning method      GridPruning ... 3 (G Style)
Weight generation scheme         WeightScheme... Becke
Basis function cutoff            BFCut       ...    1.0000e-10
Integration weight cutoff        WCut        ...    1.0000e-14
Grids for H and He will be reduced by one unit

# of grid points (after initial pruning)     ... 134324 (   0.0 sec)
# of grid points (after weights+screening)   ... 123319 (   0.1 sec)
nearest neighbour list constructed           ...    0.0 sec
Grid point re-assignment to atoms done       ...    0.0 sec
Grid point division into batches done        ...    0.4 sec
Reduced shell lists constructed in    0.8 sec

Total number of grid points                  ...   123319
Total number of batches                      ...     1939
Average number of points per batch           ...       63
Average number of grid points per atom       ...     4933
Average number of shells per batch           ...   172.48 (62.27%)
Average number of basis functions per batch  ...   498.57 (64.50%)
Average number of large shells per batch     ...   136.94 (79.40%)
Average number of large basis fcns per batch ...   392.96 (78.82%)
Average number of aux-shells per batch       ...   172.48 (36.08%)
Average number of aux functions per batch    ...   498.57 (32.08%)
Maximum spatial batch extension              ...   1.63,  1.79,  1.92 au
Average spatial batch extension              ...   0.04,  0.04,  0.04 au

Time for grid setup =    0.966 sec

------------------------------
INITIAL GUESS: MODEL POTENTIAL
------------------------------
Loading Hartree-Fock densities                     ... done
  calling /sw/apps/orca/orca_4_2_0_linux_x86-64_openmpi314/orca MOR36_pr37_atom42.inp > MOR36_pr37_atom42.out in order to generate an atomic fitting density for atom 0 (Mo with ECP) on-the-fly... 
    atom 0 (Mo), assumed electronic state with S=5: 1s2 2s2 2p6 3s2 3p6 4s2 3d10 4p6 5s2 4d4           ... done
Calculating cut-offs                               ... done
Setting up the integral package                    ... done
Initializing the effective Hamiltonian             ... done
Starting the Coulomb interaction                   ... done (   0.1 sec)
Reading the grid                                   ... done
Mapping shells                                     ... done
Starting the XC term evaluation                    ... done (   0.2 sec)
  promolecular density results
     # of electrons  =    149.996147575
     EX              =   -212.822380974
     EC              =     -0.730141721
     EX+EC           =   -213.552522695
Transforming the Hamiltonian                       ... done (   0.0 sec)
Diagonalizing the Hamiltonian                      ... done (   0.1 sec)
Back transforming the eigenvectors                 ... done (   0.0 sec)
Now organizing SCF variables                       ... done
                      ------------------
                      INITIAL GUESS DONE (   3.7 sec)
                      ------------------
--------------
SCF ITERATIONS
--------------
ITER       Energy         Delta-E        Max-DP      RMS-DP      [F,P]     Damp
  0   -803.5030024764   0.000000000000 0.27756805  0.00119190  0.4012947 0.7000
  1   -803.2011672220   0.301835254321 0.43810458  0.00121069  0.2851093 0.7000
                               ***Turning on DIIS***
  2   -803.3475688915  -0.146401669471 0.19027168  0.00067675  0.1781276 0.7000
  3   -803.6793991825  -0.331830291037 0.10501021  0.00042393  0.1213242 0.7000
  4   -803.9989504206  -0.319551238051 0.39771975  0.00125842  0.0908631 0.0000
  5   -804.2537743608  -0.254823940251 0.10174037  0.00032868  0.0358802 0.0000
  6   -804.2727100656  -0.018935704782 0.07544738  0.00018700  0.0146505 0.0000
  7   -804.2746351776  -0.001925112009 0.03650514  0.00008876  0.0132499 0.0000
  8   -804.2756163642  -0.000981186517 0.02267756  0.00006462  0.0083804 0.0000
  9   -804.2760475633  -0.000431199179 0.01103434  0.00002871  0.0017553 0.0000
 10   -804.2760892947  -0.000041731339 0.01070046  0.00002640  0.0005572 0.0000
 11   -804.2760974086  -0.000008113932 0.00155512  0.00000852  0.0003930 0.0000
 12   -804.2760985656  -0.000001156967 0.00595342  0.00001457  0.0001430 0.0000
 13   -804.2760988602  -0.000000294636 0.00235222  0.00000593  0.0001322 0.0000
 14   -804.2760989192  -0.000000059021 0.00818709  0.00001978  0.0000562 0.0000
                 **** Energy Check signals convergence ****

               *****************************************************
               *                     SUCCESS                       *
               *           SCF CONVERGED AFTER  15 CYCLES          *
               *****************************************************


----------------
TOTAL SCF ENERGY
----------------

Total Energy       :         -804.27609894 Eh          -21885.46529 eV

Components:
Nuclear Repulsion  :         1067.49664036 Eh           29048.06036 eV
Electronic Energy  :        -1871.77273930 Eh          -50933.52565 eV
One Electron Energy:        -3243.42875801 Eh          -88258.18346 eV
Two Electron Energy:         1371.65601871 Eh           37324.65782 eV

Virial components:
Potential Energy   :        -1561.59768379 Eh          -42493.23329 eV
Kinetic Energy     :          757.32158485 Eh           20607.76800 eV
Virial Ratio       :            2.06200076


DFT components:
N(Alpha)           :       60.999992885116 electrons
N(Beta)            :       60.999992885116 electrons
N(Total)           :      121.999985770232 electrons
E(X)               :      -29.530351815958 Eh       
E(C)               :       -2.255936812743 Eh       
E(XC)              :      -31.786288628701 Eh       
DFET-embed. en.    :        0.000000000000 Eh       

---------------
SCF CONVERGENCE
---------------

  Last Energy change         ...   -2.0891e-08  Tolerance :   1.0000e-06
  Last MAX-Density change    ...    1.0027e-03  Tolerance :   1.0000e-05
  Last RMS-Density change    ...    8.8450e-06  Tolerance :   1.0000e-06
  Last DIIS Error            ...    9.6416e-06  Tolerance :   1.0000e-06

             **** THE GBW FILE WAS UPDATED (MOR36_pr37.gbw) ****
             **** DENSITY FILE WAS UPDATED (MOR36_pr37.scfp) ****
             **** ENERGY FILE WAS UPDATED (MOR36_pr37.en.tmp) ****
             **** THE GBW FILE WAS UPDATED (MOR36_pr37.gbw) ****
             **** DENSITY FILE WAS UPDATED (MOR36_pr37.scfp) ****
----------------
ORBITAL ENERGIES
----------------

  NO   OCC          E(Eh)            E(eV) 
   0   2.0000     -20.047034      -545.5075 
   1   2.0000     -20.047033      -545.5075 
   2   2.0000     -20.047032      -545.5075 
   3   2.0000     -15.156802      -412.4375 
   4   2.0000     -15.156800      -412.4375 
   5   2.0000     -15.156797      -412.4374 
   6   2.0000     -10.923587      -297.2459 
   7   2.0000     -10.923586      -297.2459 
   8   2.0000     -10.923585      -297.2459 
   9   2.0000     -10.919191      -297.1263 
  10   2.0000     -10.919191      -297.1263 
  11   2.0000     -10.919191      -297.1263 
  12   2.0000     -10.907309      -296.8030 
  13   2.0000     -10.907300      -296.8027 
  14   2.0000     -10.907299      -296.8027 
  15   2.0000      -2.783339       -75.7385 
  16   2.0000      -1.691852       -46.0376 
  17   2.0000      -1.688542       -45.9476 
  18   2.0000      -1.688542       -45.9476 
  19   2.0000      -1.277507       -34.7627 
  20   2.0000      -1.276802       -34.7436 
  21   2.0000      -1.276801       -34.7435 
  22   2.0000      -1.136990       -30.9391 
  23   2.0000      -1.134272       -30.8651 
  24   2.0000      -1.134271       -30.8651 
  25   2.0000      -0.962826       -26.1998 
  26   2.0000      -0.962343       -26.1867 
  27   2.0000      -0.962343       -26.1867 
  28   2.0000      -0.673414       -18.3245 
  29   2.0000      -0.657902       -17.9024 
  30   2.0000      -0.657901       -17.9024 
  31   2.0000      -0.646704       -17.5977 
  32   2.0000      -0.637358       -17.3434 
  33   2.0000      -0.637357       -17.3434 
  34   2.0000      -0.588423       -16.0118 
  35   2.0000      -0.585685       -15.9373 
  36   2.0000      -0.585684       -15.9373 
  37   2.0000      -0.584934       -15.9169 
  38   2.0000      -0.584783       -15.9128 
  39   2.0000      -0.584783       -15.9127 
  40   2.0000      -0.584159       -15.8958 
  41   2.0000      -0.566852       -15.4248 
  42   2.0000      -0.566850       -15.4248 
  43   2.0000      -0.504538       -13.7292 
  44   2.0000      -0.500004       -13.6058 
  45   2.0000      -0.500003       -13.6058 
  46   2.0000      -0.489896       -13.3308 
  47   2.0000      -0.489896       -13.3307 
  48   2.0000      -0.486969       -13.2511 
  49   2.0000      -0.481467       -13.1014 
  50   2.0000      -0.465926       -12.6785 
  51   2.0000      -0.465926       -12.6785 
  52   2.0000      -0.451808       -12.2943 
  53   2.0000      -0.451807       -12.2943 
  54   2.0000      -0.449664       -12.2360 
  55   2.0000      -0.437586       -11.9073 
  56   2.0000      -0.435492       -11.8504 
  57   2.0000      -0.435491       -11.8503 
  58   2.0000      -0.203333        -5.5330 
  59   2.0000      -0.200011        -5.4426 
  60   2.0000      -0.200011        -5.4426 
  61   0.0000       0.015596         0.4244 
  62   0.0000       0.030355         0.8260 
  63   0.0000       0.030359         0.8261 
  64   0.0000       0.064537         1.7561 
  65   0.0000       0.070376         1.9150 
  66   0.0000       0.070940         1.9304 
  67   0.0000       0.070944         1.9305 
  68   0.0000       0.080140         2.1807 
  69   0.0000       0.081401         2.2150 
  70   0.0000       0.081413         2.2154 
  71   0.0000       0.089222         2.4279 
  72   0.0000       0.089230         2.4281 
  73   0.0000       0.091232         2.4825 
  74   0.0000       0.098700         2.6858 
  75   0.0000       0.098733         2.6867 
  76   0.0000       0.101496         2.7618 
  77   0.0000       0.105165         2.8617 
  78   0.0000       0.105173         2.8619 
  79   0.0000       0.114245         3.1088 
  80   0.0000       0.114263         3.1093 
  81   0.0000       0.123089         3.3494 
  82   0.0000       0.133010         3.6194 
  83   0.0000       0.133032         3.6200 
  84   0.0000       0.135666         3.6917 
  85   0.0000       0.141329         3.8458 
  86   0.0000       0.141346         3.8462 
  87   0.0000       0.142632         3.8812 
  88   0.0000       0.145493         3.9591 
  89   0.0000       0.145496         3.9592 
  90   0.0000       0.148372         4.0374 
  91   0.0000       0.156294         4.2530 
  92   0.0000       0.161052         4.3825 
  93   0.0000       0.161061         4.3827 
  94   0.0000       0.161846         4.4041 
  95   0.0000       0.165051         4.4913 
  96   0.0000       0.167897         4.5687 
  97   0.0000       0.167900         4.5688 
  98   0.0000       0.183422         4.9912 
  99   0.0000       0.195226         5.3124 
 100   0.0000       0.195236         5.3127 
 101   0.0000       0.199171         5.4197 
 102   0.0000       0.202489         5.5100 
 103   0.0000       0.203830         5.5465 
 104   0.0000       0.203832         5.5466 
 105   0.0000       0.208477         5.6730 
 106   0.0000       0.208498         5.6735 
 107   0.0000       0.217689         5.9236 
 108   0.0000       0.217729         5.9247 
 109   0.0000       0.225822         6.1449 
 110   0.0000       0.232734         6.3330 
 111   0.0000       0.234275         6.3749 
 112   0.0000       0.234292         6.3754 
 113   0.0000       0.250316         6.8115 
 114   0.0000       0.258941         7.0462 
 115   0.0000       0.258954         7.0465 
 116   0.0000       0.262182         7.1343 
 117   0.0000       0.270677         7.3655 
 118   0.0000       0.270767         7.3679 
 119   0.0000       0.275156         7.4874 
 120   0.0000       0.275216         7.4890 
 121   0.0000       0.275680         7.5016 
 122   0.0000       0.284763         7.7488 
 123   0.0000       0.284791         7.7496 
 124   0.0000       0.287260         7.8167 
 125   0.0000       0.291708         7.9378 
 126   0.0000       0.291742         7.9387 
 127   0.0000       0.305740         8.3196 
 128   0.0000       0.305775         8.3206 
 129   0.0000       0.307917         8.3788 
 130   0.0000       0.310403         8.4465 
 131   0.0000       0.311923         8.4879 
 132   0.0000       0.311951         8.4886 
 133   0.0000       0.314982         8.5711 
 134   0.0000       0.315037         8.5726 
 135   0.0000       0.320575         8.7233 
 136   0.0000       0.331580         9.0228 
 137   0.0000       0.332237         9.0406 
 138   0.0000       0.332313         9.0427 
 139   0.0000       0.335555         9.1309 
 140   0.0000       0.335894         9.1401 
 141   0.0000       0.335901         9.1403 
 142   0.0000       0.339384         9.2351 
 143   0.0000       0.345562         9.4032 
 144   0.0000       0.345575         9.4036 
 145   0.0000       0.347919         9.4673 
 146   0.0000       0.347937         9.4679 
 147   0.0000       0.349265         9.5040 
 148   0.0000       0.352745         9.5987 
 149   0.0000       0.355327         9.6689 
 150   0.0000       0.355358         9.6698 
 151   0.0000       0.362374         9.8607 
 152   0.0000       0.370039        10.0693 
 153   0.0000       0.370081        10.0704 
 154   0.0000       0.379734        10.3331 
 155   0.0000       0.386089        10.5060 
 156   0.0000       0.388392        10.5687 
 157   0.0000       0.388403        10.5690 
 158   0.0000       0.404104        10.9962 
 159   0.0000       0.404133        10.9970 
 160   0.0000       0.414075        11.2676 
 161   0.0000       0.416302        11.3282 
 162   0.0000       0.416308        11.3283 
 163   0.0000       0.425492        11.5782 
 164   0.0000       0.432811        11.7774 
 165   0.0000       0.432833        11.7780 
 166   0.0000       0.434815        11.8319 
 167   0.0000       0.436116        11.8673 
 168   0.0000       0.436127        11.8676 
 169   0.0000       0.440716        11.9925 
 170   0.0000       0.459161        12.4944 
 171   0.0000       0.460824        12.5397 
 172   0.0000       0.460844        12.5402 
 173   0.0000       0.471265        12.8238 
 174   0.0000       0.471298        12.8247 
 175   0.0000       0.471587        12.8325 
 176   0.0000       0.484267        13.1776 
 177   0.0000       0.484276        13.1778 
 178   0.0000       0.486215        13.2306 
 179   0.0000       0.489363        13.3162 
 180   0.0000       0.489385        13.3168 
 181   0.0000       0.506135        13.7726 
 182   0.0000       0.506175        13.7737 
 183   0.0000       0.509357        13.8603 
 184   0.0000       0.532065        14.4782 
 185   0.0000       0.534174        14.5356 
 186   0.0000       0.546758        14.8780 
 187   0.0000       0.546785        14.8788 
 188   0.0000       0.547377        14.8949 
 189   0.0000       0.562856        15.3161 
 190   0.0000       0.571982        15.5644 
 191   0.0000       0.572102        15.5677 
 192   0.0000       0.586869        15.9695 
 193   0.0000       0.586898        15.9703 
 194   0.0000       0.591600        16.0982 
 195   0.0000       0.600239        16.3333 
 196   0.0000       0.600282        16.3345 
 197   0.0000       0.608840        16.5674 
 198   0.0000       0.612019        16.6539 
 199   0.0000       0.612059        16.6550 
 200   0.0000       0.617073        16.7914 
 201   0.0000       0.620591        16.8871 
 202   0.0000       0.620619        16.8879 
 203   0.0000       0.622367        16.9355 
 204   0.0000       0.624061        16.9816 
 205   0.0000       0.624104        16.9827 
 206   0.0000       0.636891        17.3307 
 207   0.0000       0.639375        17.3983 
 208   0.0000       0.645535        17.5659 
 209   0.0000       0.645557        17.5665 
 210   0.0000       0.656439        17.8626 
 211   0.0000       0.656484        17.8638 
 212   0.0000       0.665853        18.1188 
 213   0.0000       0.679992        18.5035 
 214   0.0000       0.685699        18.6588 
 215   0.0000       0.685734        18.6598 
 216   0.0000       0.694523        18.8989 
 217   0.0000       0.694534        18.8992 
 218   0.0000       0.694715        18.9041 
 219   0.0000       0.700238        19.0544 
 220   0.0000       0.700291        19.0559 
 221   0.0000       0.704513        19.1708 
 222   0.0000       0.708868        19.2893 
 223   0.0000       0.717052        19.5120 
 224   0.0000       0.717076        19.5126 
 225   0.0000       0.717801        19.5324 
 226   0.0000       0.724692        19.7199 
 227   0.0000       0.724739        19.7211 
 228   0.0000       0.737612        20.0714 
 229   0.0000       0.739922        20.1343 
 230   0.0000       0.739993        20.1362 
 231   0.0000       0.750304        20.4168 
 232   0.0000       0.750392        20.4192 
 233   0.0000       0.754627        20.5344 
 234   0.0000       0.758777        20.6474 
 235   0.0000       0.758787        20.6476 
 236   0.0000       0.769227        20.9317 
 237   0.0000       0.769286        20.9333 
 238   0.0000       0.772854        21.0304 
 239   0.0000       0.791212        21.5300 
 240   0.0000       0.791412        21.5354 
 241   0.0000       0.791441        21.5362 
 242   0.0000       0.798837        21.7375 
 243   0.0000       0.798871        21.7384 
 244   0.0000       0.810217        22.0471 
 245   0.0000       0.810456        22.0536 
 246   0.0000       0.815300        22.1854 
 247   0.0000       0.834206        22.6999 
 248   0.0000       0.834246        22.7010 
 249   0.0000       0.835992        22.7485 
 250   0.0000       0.852289        23.1920 
 251   0.0000       0.863343        23.4928 
 252   0.0000       0.863443        23.4955 
 253   0.0000       0.864877        23.5345 
 254   0.0000       0.875161        23.8143 
 255   0.0000       0.875328        23.8189 
 256   0.0000       0.876315        23.8458 
 257   0.0000       0.898949        24.4617 
 258   0.0000       0.899357        24.4728 
 259   0.0000       0.899715        24.4825 
 260   0.0000       0.904858        24.6224 
 261   0.0000       0.920898        25.0589 
 262   0.0000       0.925114        25.1736 
 263   0.0000       0.925124        25.1739 
 264   0.0000       0.937200        25.5025 
 265   0.0000       0.937327        25.5060 
 266   0.0000       0.939215        25.5573 
 267   0.0000       0.950955        25.8768 
 268   0.0000       0.950964        25.8770 
 269   0.0000       0.962260        26.1844 
 270   0.0000       0.963092        26.2071 
 271   0.0000       0.963173        26.2093 
 272   0.0000       0.968771        26.3616 
 273   0.0000       0.988464        26.8975 
 274   0.0000       0.988538        26.8995 
 275   0.0000       0.995373        27.0855 
 276   0.0000       0.996416        27.1139 
 277   0.0000       0.996461        27.1151 
 278   0.0000       1.002622        27.2827 
 279   0.0000       1.002700        27.2849 
 280   0.0000       1.012449        27.5501 
 281   0.0000       1.032913        28.1070 
 282   0.0000       1.032937        28.1076 
 283   0.0000       1.043383        28.3919 
 284   0.0000       1.043494        28.3949 
 285   0.0000       1.049820        28.5671 
 286   0.0000       1.056671        28.7535 
 287   0.0000       1.063603        28.9421 
 288   0.0000       1.063648        28.9433 
 289   0.0000       1.084549        29.5121 
 290   0.0000       1.090063        29.6621 
 291   0.0000       1.090076        29.6625 
 292   0.0000       1.095579        29.8122 
 293   0.0000       1.095672        29.8147 
 294   0.0000       1.104959        30.0675 
 295   0.0000       1.108654        30.1680 
 296   0.0000       1.108682        30.1688 
 297   0.0000       1.118878        30.4462 
 298   0.0000       1.123045        30.5596 
 299   0.0000       1.138252        30.9734 
 300   0.0000       1.138326        30.9754 
 301   0.0000       1.142489        31.0887 
 302   0.0000       1.150232        31.2994 
 303   0.0000       1.166561        31.7437 
 304   0.0000       1.166606        31.7450 
 305   0.0000       1.182517        32.1779 
 306   0.0000       1.182569        32.1793 
 307   0.0000       1.187630        32.3171 
 308   0.0000       1.196625        32.5618 
 309   0.0000       1.217591        33.1323 
 310   0.0000       1.217614        33.1330 
 311   0.0000       1.227709        33.4077 
 312   0.0000       1.244702        33.8701 
 313   0.0000       1.244749        33.8713 
 314   0.0000       1.247520        33.9468 
 315   0.0000       1.262254        34.3477 
 316   0.0000       1.262373        34.3509 
 317   0.0000       1.269303        34.5395 
 318   0.0000       1.291213        35.1357 
 319   0.0000       1.291290        35.1378 
 320   0.0000       1.297145        35.2971 
 321   0.0000       1.306623        35.5550 
 322   0.0000       1.309002        35.6198 
 323   0.0000       1.309463        35.6323 
 324   0.0000       1.309515        35.6337 
 325   0.0000       1.319627        35.9089 
 326   0.0000       1.319661        35.9098 
 327   0.0000       1.324177        36.0327 
 328   0.0000       1.327383        36.1199 
 329   0.0000       1.327395        36.1202 
 330   0.0000       1.340974        36.4897 
 331   0.0000       1.360080        37.0097 
 332   0.0000       1.360157        37.0118 
 333   0.0000       1.366480        37.1838 
 334   0.0000       1.366504        37.1845 
 335   0.0000       1.372980        37.3607 
 336   0.0000       1.404440        38.2167 
 337   0.0000       1.420891        38.6644 
 338   0.0000       1.428101        38.8606 
 339   0.0000       1.428180        38.8628 
 340   0.0000       1.442990        39.2657 
 341   0.0000       1.443034        39.2670 
 342   0.0000       1.464584        39.8534 
 343   0.0000       1.465590        39.8807 
 344   0.0000       1.465645        39.8822 
 345   0.0000       1.493220        40.6326 
 346   0.0000       1.493345        40.6360 
 347   0.0000       1.494640        40.6712 
 348   0.0000       1.520060        41.3629 
 349   0.0000       1.520132        41.3649 
 350   0.0000       1.530777        41.6546 
 351   0.0000       1.556170        42.3455 
 352   0.0000       1.556230        42.3472 
 353   0.0000       1.556372        42.3510 
 354   0.0000       1.585279        43.1376 
 355   0.0000       1.585318        43.1387 
 356   0.0000       1.593210        43.3535 
 357   0.0000       1.619330        44.0642 
 358   0.0000       1.619340        44.0645 
 359   0.0000       1.656806        45.0840 
 360   0.0000       1.656816        45.0842 
 361   0.0000       1.656982        45.0888 
 362   0.0000       1.668413        45.3998 
 363   0.0000       1.670777        45.4642 
 364   0.0000       1.670812        45.4651 
 365   0.0000       1.678440        45.6727 
 366   0.0000       1.691883        46.0385 
 367   0.0000       1.691910        46.0392 
 368   0.0000       1.697596        46.1939 
 369   0.0000       1.697605        46.1942 
 370   0.0000       1.701077        46.2886 
 371   0.0000       1.709460        46.5168 
 372   0.0000       1.709510        46.5181 
 373   0.0000       1.713037        46.6141 
 374   0.0000       1.716842        46.7176 
 375   0.0000       1.716855        46.7180 
 376   0.0000       1.721652        46.8485 
 377   0.0000       1.752003        47.6744 
 378   0.0000       1.764934        48.0263 
 379   0.0000       1.774604        48.2894 
 380   0.0000       1.774827        48.2955 
 381   0.0000       1.812989        49.3339 
 382   0.0000       1.813141        49.3381 
 383   0.0000       1.847260        50.2665 
 384   0.0000       1.851108        50.3712 
 385   0.0000       1.851128        50.3718 
 386   0.0000       1.930444        52.5300 
 387   0.0000       1.930463        52.5306 
 388   0.0000       1.936550        52.6962 
 389   0.0000       1.939479        52.7759 
 390   0.0000       1.965944        53.4960 
 391   0.0000       1.965963        53.4966 
 392   0.0000       1.980366        53.8885 
 393   0.0000       1.996172        54.3186 
 394   0.0000       1.996213        54.3197 
 395   0.0000       2.021691        55.0130 
 396   0.0000       2.027502        55.1711 
 397   0.0000       2.027634        55.1747 
 398   0.0000       2.034562        55.3633 
 399   0.0000       2.034570        55.3635 
 400   0.0000       2.049965        55.7824 
 401   0.0000       2.050015        55.7838 
 402   0.0000       2.063514        56.1511 
 403   0.0000       2.094342        56.9900 
 404   0.0000       2.097686        57.0809 
 405   0.0000       2.109244        57.3955 
 406   0.0000       2.109258        57.3958 
 407   0.0000       2.116304        57.5876 
 408   0.0000       2.116328        57.5882 
 409   0.0000       2.133285        58.0496 
 410   0.0000       2.151876        58.5555 
 411   0.0000       2.151932        58.5571 
 412   0.0000       2.158092        58.7247 
 413   0.0000       2.165188        58.9178 
 414   0.0000       2.177898        59.2636 
 415   0.0000       2.177946        59.2649 
 416   0.0000       2.209059        60.1116 
 417   0.0000       2.218925        60.3800 
 418   0.0000       2.226322        60.5813 
 419   0.0000       2.226408        60.5836 
 420   0.0000       2.261935        61.5504 
 421   0.0000       2.261946        61.5507 
 422   0.0000       2.330943        63.4282 
 423   0.0000       2.330983        63.4293 
 424   0.0000       2.371418        64.5296 
 425   0.0000       2.371498        64.5317 
 426   0.0000       2.386140        64.9302 
 427   0.0000       2.395022        65.1719 
 428   0.0000       2.395043        65.1724 
 429   0.0000       2.413167        65.6656 
 430   0.0000       2.419269        65.8317 
 431   0.0000       2.419340        65.8336 
 432   0.0000       2.464287        67.0566 
 433   0.0000       2.486592        67.6636 
 434   0.0000       2.494442        67.8772 
 435   0.0000       2.496624        67.9366 
 436   0.0000       2.496634        67.9369 
 437   0.0000       2.529749        68.8380 
 438   0.0000       2.529759        68.8382 
 439   0.0000       2.546273        69.2876 
 440   0.0000       2.549326        69.3707 
 441   0.0000       2.549341        69.3711 
 442   0.0000       2.602298        70.8121 
 443   0.0000       2.671757        72.7022 
 444   0.0000       2.671771        72.7026 
 445   0.0000       2.718558        73.9757 
 446   0.0000       2.747725        74.7694 
 447   0.0000       2.762323        75.1666 
 448   0.0000       2.762370        75.1679 
 449   0.0000       2.767167        75.2985 
 450   0.0000       2.783454        75.7416 
 451   0.0000       2.783462        75.7419 
 452   0.0000       2.785602        75.8001 
 453   0.0000       2.788497        75.8789 
 454   0.0000       2.788514        75.8793 
 455   0.0000       2.791356        75.9567 
 456   0.0000       2.834149        77.1211 
 457   0.0000       2.834197        77.1224 
 458   0.0000       2.838569        77.2414 
 459   0.0000       2.846065        77.4454 
 460   0.0000       2.863933        77.9316 
 461   0.0000       2.863949        77.9320 
 462   0.0000       2.887865        78.5828 
 463   0.0000       2.887899        78.5837 
 464   0.0000       2.889745        78.6339 
 465   0.0000       2.908376        79.1409 
 466   0.0000       2.916361        79.3582 
 467   0.0000       2.916369        79.3584 
 468   0.0000       2.929413        79.7134 
 469   0.0000       2.931208        79.7622 
 470   0.0000       2.931218        79.7625 
 471   0.0000       2.935968        79.8917 
 472   0.0000       2.935996        79.8925 
 473   0.0000       2.953915        80.3801 
 474   0.0000       2.953959        80.3813 
 475   0.0000       2.955121        80.4129 
 476   0.0000       2.971412        80.8562 
 477   0.0000       2.971443        80.8571 
 478   0.0000       2.972849        80.8953 
 479   0.0000       2.974589        80.9427 
 480   0.0000       2.975034        80.9548 
 481   0.0000       2.975039        80.9549 
 482   0.0000       2.985156        81.2302 
 483   0.0000       3.023219        82.2660 
 484   0.0000       3.026558        82.3568 
 485   0.0000       3.026588        82.3577 
 486   0.0000       3.040939        82.7482 
 487   0.0000       3.042885        82.8011 
 488   0.0000       3.042895        82.8014 
 489   0.0000       3.047057        82.9146 
 490   0.0000       3.047064        82.9148 
 491   0.0000       3.062979        83.3479 
 492   0.0000       3.074532        83.6623 
 493   0.0000       3.074537        83.6624 
 494   0.0000       3.090473        84.0961 
 495   0.0000       3.091290        84.1183 
 496   0.0000       3.102863        84.4332 
 497   0.0000       3.102885        84.4338 
 498   0.0000       3.116947        84.8164 
 499   0.0000       3.116972        84.8171 
 500   0.0000       3.134511        85.2944 
 501   0.0000       3.147483        85.6474 
 502   0.0000       3.170098        86.2628 
 503   0.0000       3.170129        86.2636 
 504   0.0000       3.183887        86.6380 
 505   0.0000       3.193704        86.9051 
 506   0.0000       3.193712        86.9053 
 507   0.0000       3.206232        87.2460 
 508   0.0000       3.217606        87.5555 
 509   0.0000       3.218338        87.5754 
 510   0.0000       3.218354        87.5759 
 511   0.0000       3.234917        88.0266 
 512   0.0000       3.234923        88.0267 
 513   0.0000       3.261893        88.7606 
 514   0.0000       3.270303        88.9895 
 515   0.0000       3.270335        88.9903 
 516   0.0000       3.285193        89.3946 
 517   0.0000       3.285200        89.3948 
 518   0.0000       3.290069        89.5273 
 519   0.0000       3.328304        90.5678 
 520   0.0000       3.336656        90.7950 
 521   0.0000       3.336679        90.7957 
 522   0.0000       3.342239        90.9469 
 523   0.0000       3.342251        90.9473 
 524   0.0000       3.350210        91.1638 
 525   0.0000       3.354737        91.2870 
 526   0.0000       3.354751        91.2874 
 527   0.0000       3.370803        91.7242 
 528   0.0000       3.375394        91.8492 
 529   0.0000       3.375430        91.8501 
 530   0.0000       3.383186        92.0612 
 531   0.0000       3.383211        92.0619 
 532   0.0000       3.387137        92.1687 
 533   0.0000       3.415666        92.9450 
 534   0.0000       3.441639        93.6518 
 535   0.0000       3.441650        93.6520 
 536   0.0000       3.445683        93.7618 
 537   0.0000       3.469642        94.4138 
 538   0.0000       3.479104        94.6712 
 539   0.0000       3.479117        94.6716 
 540   0.0000       3.488984        94.9401 
 541   0.0000       3.490072        94.9697 
 542   0.0000       3.490088        94.9701 
 543   0.0000       3.491579        95.0107 
 544   0.0000       3.492872        95.0459 
 545   0.0000       3.492897        95.0466 
 546   0.0000       3.527211        95.9803 
 547   0.0000       3.527262        95.9817 
 548   0.0000       3.573640        97.2437 
 549   0.0000       3.573656        97.2441 
 550   0.0000       3.591978        97.7427 
 551   0.0000       3.595132        97.8285 
 552   0.0000       3.595156        97.8292 
 553   0.0000       3.604638        98.0872 
 554   0.0000       3.623032        98.5877 
 555   0.0000       3.623047        98.5881 
 556   0.0000       3.630534        98.7919 
 557   0.0000       3.636782        98.9619 
 558   0.0000       3.638756        99.0156 
 559   0.0000       3.638771        99.0160 
 560   0.0000       3.663279        99.6829 
 561   0.0000       3.675853       100.0250 
 562   0.0000       3.682531       100.2068 
 563   0.0000       3.682536       100.2069 
 564   0.0000       3.687270       100.3357 
 565   0.0000       3.690542       100.4248 
 566   0.0000       3.690576       100.4257 
 567   0.0000       3.696430       100.5850 
 568   0.0000       3.696462       100.5859 
 569   0.0000       3.709150       100.9311 
 570   0.0000       3.720555       101.2414 
 571   0.0000       3.726743       101.4098 
 572   0.0000       3.726764       101.4104 
 573   0.0000       3.736768       101.6826 
 574   0.0000       3.770480       102.6000 
 575   0.0000       3.770514       102.6009 
 576   0.0000       3.777905       102.8020 
 577   0.0000       3.811685       103.7212 
 578   0.0000       3.827907       104.1626 
 579   0.0000       3.827925       104.1631 
 580   0.0000       3.844612       104.6172 
 581   0.0000       3.844618       104.6174 
 582   0.0000       3.851787       104.8125 
 583   0.0000       3.857853       104.9775 
 584   0.0000       3.857888       104.9785 
 585   0.0000       3.892246       105.9134 
 586   0.0000       3.892255       105.9136 
 587   0.0000       3.901621       106.1685 
 588   0.0000       3.994063       108.6840 
 589   0.0000       4.001590       108.8888 
 590   0.0000       4.001670       108.8910 
 591   0.0000       4.053783       110.3090 
 592   0.0000       4.074428       110.8708 
 593   0.0000       4.074452       110.8715 
 594   0.0000       4.091179       111.3266 
 595   0.0000       4.101617       111.6107 
 596   0.0000       4.101649       111.6115 
 597   0.0000       4.114124       111.9510 
 598   0.0000       4.114151       111.9517 
 599   0.0000       4.115701       111.9939 
 600   0.0000       4.145468       112.8039 
 601   0.0000       4.145471       112.8040 
 602   0.0000       4.170197       113.4768 
 603   0.0000       4.181999       113.7980 
 604   0.0000       4.201479       114.3281 
 605   0.0000       4.201486       114.3283 
 606   0.0000       4.209116       114.5359 
 607   0.0000       4.209131       114.5363 
 608   0.0000       4.222359       114.8962 
 609   0.0000       4.225465       114.9807 
 610   0.0000       4.228578       115.0655 
 611   0.0000       4.228588       115.0657 
 612   0.0000       4.236818       115.2897 
 613   0.0000       4.237731       115.3145 
 614   0.0000       4.237742       115.3148 
 615   0.0000       4.276267       116.3631 
 616   0.0000       4.276279       116.3635 
 617   0.0000       4.299131       116.9853 
 618   0.0000       4.300278       117.0165 
 619   0.0000       4.300285       117.0167 
 620   0.0000       4.304158       117.1221 
 621   0.0000       4.340285       118.1052 
 622   0.0000       4.340291       118.1053 
 623   0.0000       4.354279       118.4859 
 624   0.0000       4.359779       118.6356 
 625   0.0000       4.359803       118.6363 
 626   0.0000       4.361749       118.6892 
 627   0.0000       4.369326       118.8954 
 628   0.0000       4.369354       118.8962 
 629   0.0000       4.378873       119.1552 
 630   0.0000       4.397970       119.6749 
 631   0.0000       4.440681       120.8371 
 632   0.0000       4.446839       121.0046 
 633   0.0000       4.446843       121.0048 
 634   0.0000       4.465884       121.5229 
 635   0.0000       4.465894       121.5232 
 636   0.0000       4.604760       125.3019 
 637   0.0000       4.604775       125.3023 
 638   0.0000       4.610819       125.4668 
 639   0.0000       4.613947       125.5519 
 640   0.0000       4.613955       125.5521 
 641   0.0000       4.623727       125.8180 
 642   0.0000       4.754506       129.3767 
 643   0.0000       4.810140       130.8906 
 644   0.0000       4.810170       130.8914 
 645   0.0000       4.822339       131.2225 
 646   0.0000       4.831382       131.4686 
 647   0.0000       4.831411       131.4694 
 648   0.0000       4.836251       131.6011 
 649   0.0000       4.841765       131.7511 
 650   0.0000       4.849725       131.9677 
 651   0.0000       4.849753       131.9685 
 652   0.0000       4.921475       133.9202 
 653   0.0000       4.921530       133.9216 
 654   0.0000       5.011096       136.3589 
 655   0.0000       5.011103       136.3590 
 656   0.0000       5.017900       136.5440 
 657   0.0000       5.017932       136.5449 
 658   0.0000       5.018947       136.5725 
 659   0.0000       5.023816       136.7050 
 660   0.0000       5.025771       136.7582 
 661   0.0000       5.039344       137.1275 
 662   0.0000       5.039359       137.1279 
 663   0.0000       5.049894       137.4146 
 664   0.0000       5.054210       137.5320 
 665   0.0000       5.054232       137.5326 
 666   0.0000       5.099668       138.7690 
 667   0.0000       5.101473       138.8181 
 668   0.0000       5.101481       138.8183 
 669   0.0000       5.105623       138.9311 
 670   0.0000       5.226683       142.2253 
 671   0.0000       5.226710       142.2260 
 672   0.0000       5.275067       143.5419 
 673   0.0000       5.275128       143.5435 
 674   0.0000       5.275131       143.5436 
 675   0.0000       5.390130       146.6729 
 676   0.0000       5.420459       147.4982 
 677   0.0000       5.420475       147.4986 
 678   0.0000       5.433010       147.8397 
 679   0.0000       5.442213       148.0901 
 680   0.0000       5.442232       148.0907 
 681   0.0000       5.443460       148.1241 
 682   0.0000       5.453048       148.3850 
 683   0.0000       5.453049       148.3850 
 684   0.0000       5.453148       148.3877 
 685   0.0000       5.455327       148.4470 
 686   0.0000       5.455328       148.4470 
 687   0.0000       5.456026       148.4660 
 688   0.0000       5.486771       149.3026 
 689   0.0000       5.486784       149.3030 
 690   0.0000       5.508587       149.8963 
 691   0.0000       5.514860       150.0670 
 692   0.0000       5.528043       150.4257 
 693   0.0000       5.528062       150.4262 
 694   0.0000       5.535860       150.6384 
 695   0.0000       5.535903       150.6396 
 696   0.0000       5.546951       150.9402 
 697   0.0000       5.546975       150.9409 
 698   0.0000       5.548973       150.9952 
 699   0.0000       5.562261       151.3568 
 700   0.0000       5.562299       151.3579 
 701   0.0000       5.565936       151.4568 
 702   0.0000       5.589337       152.0936 
 703   0.0000       5.589352       152.0940 
 704   0.0000       5.604243       152.4992 
 705   0.0000       5.772861       157.0875 
 706   0.0000       5.779659       157.2725 
 707   0.0000       5.779683       157.2732 
 708   0.0000       5.835560       158.7937 
 709   0.0000       5.835561       158.7937 
 710   0.0000       5.848392       159.1428 
 711   0.0000       5.864394       159.5783 
 712   0.0000       5.864401       159.5785 
 713   0.0000       5.870003       159.7309 
 714   0.0000       5.887084       160.1957 
 715   0.0000       5.887087       160.1958 
 716   0.0000       5.890712       160.2944 
 717   0.0000       5.896519       160.4524 
 718   0.0000       5.899368       160.5300 
 719   0.0000       5.899376       160.5302 
 720   0.0000       6.196703       168.6209 
 721   0.0000       6.196711       168.6211 
 722   0.0000       6.202597       168.7813 
 723   0.0000       6.228104       169.4753 
 724   0.0000       6.251198       170.1038 
 725   0.0000       6.251204       170.1039 
 726   0.0000       6.472984       176.1388 
 727   0.0000       6.474985       176.1933 
 728   0.0000       6.475001       176.1937 
 729   0.0000       6.584245       179.1664 
 730   0.0000       6.584273       179.1672 
 731   0.0000       6.619853       180.1354 
 732   0.0000       6.743181       183.4913 
 733   0.0000       6.749471       183.6624 
 734   0.0000       6.749475       183.6626 
 735   0.0000       6.756547       183.8550 
 736   0.0000       6.756552       183.8551 
 737   0.0000       6.759763       183.9425 
 738   0.0000       6.815559       185.4608 
 739   0.0000       6.815565       185.4609 
 740   0.0000       6.819391       185.5651 
 741   0.0000       6.849644       186.3883 
 742   0.0000       6.864085       186.7812 
 743   0.0000       6.864102       186.7817 
 744   0.0000       7.032202       191.3560 
 745   0.0000       7.032233       191.3568 
 746   0.0000       7.050334       191.8493 
 747   0.0000       7.260771       197.5756 
 748   0.0000       7.262231       197.6154 
 749   0.0000       7.262753       197.6296 
 750   0.0000       7.262754       197.6296 
 751   0.0000       7.273128       197.9119 
 752   0.0000       7.273132       197.9120 
 753   0.0000       7.578794       206.2295 
 754   0.0000       7.589452       206.5195 
 755   0.0000       7.589458       206.5196 
 756   0.0000      24.168813       657.6668 
 757   0.0000      24.168825       657.6672 
 758   0.0000      24.194999       658.3794 
 759   0.0000      24.212570       658.8575 
 760   0.0000      24.212577       658.8577 
 761   0.0000      24.323945       661.8882 
 762   0.0000      24.484376       666.2538 
 763   0.0000      24.484381       666.2539 
 764   0.0000      24.497068       666.5991 
 765   0.0000      25.804192       702.1678 
 766   0.0000      33.711552       917.3380 
 767   0.0000      33.915657       922.8919 
 768   0.0000      33.915668       922.8922 
 769   0.0000      45.234729      1230.8996 
 770   0.0000      45.367764      1234.5196 
 771   0.0000      45.367767      1234.5197 
 772   0.0000      85.239222      2319.4771 

                    ********************************
                    * MULLIKEN POPULATION ANALYSIS *
                    ********************************

-----------------------
MULLIKEN ATOMIC CHARGES
-----------------------
   0 Mo:   -0.172344
   1 C :    0.329584
   2 C :    0.328602
   3 C :    0.329184
   4 O :   -0.420057
   5 O :   -0.419881
   6 O :   -0.419762
   7 N :   -0.080779
   8 N :   -0.081216
   9 N :   -0.081232
  10 C :    0.305742
  11 C :    0.305229
  12 C :    0.305747
  13 C :   -0.411896
  14 H :    0.111934
  15 H :    0.109252
  16 H :    0.114092
  17 C :   -0.410506
  18 H :    0.111708
  19 H :    0.109053
  20 H :    0.114018
  21 C :   -0.411813
  22 H :    0.112028
  23 H :    0.109222
  24 H :    0.114090
Sum of atomic charges:   -0.0000000

--------------------------------
MULLIKEN REDUCED ORBITAL CHARGES
--------------------------------
  0 Mos       :     2.682394  s :     2.682394
      pz      :     2.269473  p :     6.563635
      px      :     2.147222
      py      :     2.146940
      dz2     :     1.314420  d :     4.826129
      dxz     :     0.677937
      dyz     :     0.678338
      dx2y2   :     1.077831
      dxy     :     1.077604
      f0      :     0.011231  f :     0.095327
      f+1     :     0.009380
      f-1     :     0.009370
      f+2     :     0.023324
      f-2     :     0.023329
      f+3     :     0.011240
      f-3     :     0.007453
      g0      :     0.000495  g :     0.004858
      g+1     :     0.000310
      g-1     :     0.000310
      g+2     :     0.000729
      g-2     :     0.000729
      g+3     :     0.000975
      g-3     :     0.000651
      g+4     :     0.000330
      g-4     :     0.000330
  1 C s       :     3.435243  s :     3.435243
      pz      :     0.696733  p :     2.060782
      px      :     0.609475
      py      :     0.754574
      dz2     :     0.045710  d :     0.156552
      dxz     :     0.019660
      dyz     :     0.017639
      dx2y2   :     0.032199
      dxy     :     0.041344
      f0      :     0.001706  f :     0.017840
      f+1     :     0.000777
      f-1     :     0.004638
      f+2     :     0.003160
      f-2     :     0.003304
      f+3     :     0.002007
      f-3     :     0.002247
  2 C s       :     3.435935  s :     3.435935
      pz      :     0.696853  p :     2.061028
      px      :     0.670090
      py      :     0.694085
      dz2     :     0.045743  d :     0.156594
      dxz     :     0.018610
      dyz     :     0.018673
      dx2y2   :     0.053933
      dxy     :     0.019634
      f0      :     0.001707  f :     0.017840
      f+1     :     0.002390
      f-1     :     0.003025
      f+2     :     0.003503
      f-2     :     0.002961
      f+3     :     0.002007
      f-3     :     0.002246
  3 C s       :     3.435180  s :     3.435180
      pz      :     0.697005  p :     2.061200
      px      :     0.766689
      py      :     0.597506
      dz2     :     0.045759  d :     0.156596
      dxz     :     0.017592
      dyz     :     0.019657
      dx2y2   :     0.024265
      dxy     :     0.049323
      f0      :     0.001709  f :     0.017841
      f+1     :     0.004957
      f-1     :     0.000459
      f+2     :     0.003034
      f-2     :     0.003432
      f+3     :     0.002006
      f-3     :     0.002245
  4 O s       :     3.910467  s :     3.910467
      pz      :     1.481552  p :     4.458220
      px      :     1.423761
      py      :     1.552907
      dz2     :     0.012372  d :     0.049546
      dxz     :     0.011213
      dyz     :     0.007411
      dx2y2   :     0.008504
      dxy     :     0.010045
      f0      :     0.000169  f :     0.001825
      f+1     :     0.000517
      f-1     :     0.000045
      f+2     :     0.000303
      f-2     :     0.000361
      f+3     :     0.000201
      f-3     :     0.000229
  5 O s       :     3.910331  s :     3.910331
      pz      :     1.481615  p :     4.458187
      px      :     1.543735
      py      :     1.432837
      dz2     :     0.012367  d :     0.049538
      dxz     :     0.007689
      dyz     :     0.010925
      dx2y2   :     0.009003
      dxy     :     0.009554
      f0      :     0.000169  f :     0.001825
      f+1     :     0.000079
      f-1     :     0.000483
      f+2     :     0.000321
      f-2     :     0.000343
      f+3     :     0.000201
      f-3     :     0.000229
  6 O s       :     3.910210  s :     3.910210
      pz      :     1.481597  p :     4.458184
      px      :     1.497439
      py      :     1.479148
      dz2     :     0.012368  d :     0.049543
      dxz     :     0.009026
      dyz     :     0.009594
      dx2y2   :     0.010326
      dxy     :     0.008230
      f0      :     0.000169  f :     0.001825
      f+1     :     0.000248
      f-1     :     0.000314
      f+2     :     0.000372
      f-2     :     0.000292
      f+3     :     0.000201
      f-3     :     0.000229
  7 N s       :     3.778196  s :     3.778196
      pz      :     1.062092  p :     3.246779
      px      :     1.096131
      py      :     1.088556
      dz2     :     0.010148  d :     0.052390
      dxz     :     0.011687
      dyz     :     0.012124
      dx2y2   :     0.008076
      dxy     :     0.010355
      f0      :     0.000244  f :     0.003414
      f+1     :     0.000503
      f-1     :     0.000638
      f+2     :     0.000740
      f-2     :     0.000378
      f+3     :     0.000406
      f-3     :     0.000504
  8 N s       :     3.778893  s :     3.778893
      pz      :     1.062051  p :     3.246581
      px      :     1.115133
      py      :     1.069396
      dz2     :     0.010136  d :     0.052329
      dxz     :     0.010718
      dyz     :     0.013099
      dx2y2   :     0.009412
      dxy     :     0.008963
      f0      :     0.000244  f :     0.003414
      f+1     :     0.000149
      f-1     :     0.000992
      f+2     :     0.000510
      f-2     :     0.000608
      f+3     :     0.000406
      f-3     :     0.000505
  9 N s       :     3.778470  s :     3.778470
      pz      :     1.062057  p :     3.246870
      px      :     1.065820
      py      :     1.118992
      dz2     :     0.010191  d :     0.052479
      dxz     :     0.013384
      dyz     :     0.010512
      dx2y2   :     0.010103
      dxy     :     0.008288
      f0      :     0.000245  f :     0.003414
      f+1     :     0.001060
      f-1     :     0.000081
      f+2     :     0.000427
      f-2     :     0.000691
      f+3     :     0.000406
      f-3     :     0.000504
 10 C s       :     3.011761  s :     3.011761
      pz      :     0.855423  p :     2.630623
      px      :     0.892160
      py      :     0.883039
      dz2     :     0.016931  d :     0.034085
      dxz     :    -0.008854
      dyz     :     0.010698
      dx2y2   :     0.001086
      dxy     :     0.014224
      f0      :     0.001287  f :     0.017789
      f+1     :     0.005320
      f-1     :     0.000323
      f+2     :     0.002603
      f-2     :     0.003384
      f+3     :     0.002241
      f-3     :     0.002631
 11 C s       :     3.011733  s :     3.011733
      pz      :     0.855617  p :     2.631074
      px      :     0.883034
      py      :     0.892423
      dz2     :     0.016956  d :     0.034175
      dxz     :     0.008873
      dyz     :    -0.007004
      dx2y2   :     0.006990
      dxy     :     0.008360
      f0      :     0.001285  f :     0.017788
      f+1     :     0.000700
      f-1     :     0.004943
      f+2     :     0.002847
      f-2     :     0.003138
      f+3     :     0.002242
      f-3     :     0.002633
 12 C s       :     3.011716  s :     3.011716
      pz      :     0.855623  p :     2.630643
      px      :     0.887599
      py      :     0.887420
      dz2     :     0.016934  d :     0.034104
      dxz     :     0.002738
      dyz     :    -0.000900
      dx2y2   :     0.014959
      dxy     :     0.000373
      f0      :     0.001285  f :     0.017789
      f+1     :     0.002446
      f-1     :     0.003197
      f+2     :     0.003528
      f-2     :     0.002458
      f+3     :     0.002243
      f-3     :     0.002631
 13 C s       :     3.189148  s :     3.189148
      pz      :     1.064970  p :     3.151714
      px      :     1.054030
      py      :     1.032714
      dz2     :     0.021329  d :     0.068097
      dxz     :     0.008624
      dyz     :     0.010709
      dx2y2   :     0.018198
      dxy     :     0.009237
      f0      :     0.000631  f :     0.002937
      f+1     :     0.000437
      f-1     :     0.000167
      f+2     :     0.000251
      f-2     :     0.000537
      f+3     :     0.000401
      f-3     :     0.000514
 14 H s       :     0.845523  s :     0.845523
      pz      :     0.010000  p :     0.040509
      px      :     0.022796
      py      :     0.007712
      dz2     :     0.000155  d :     0.002034
      dxz     :     0.000670
      dyz     :     0.000046
      dx2y2   :     0.000514
      dxy     :     0.000648
 15 H s       :     0.850142  s :     0.850142
      pz      :     0.021555  p :     0.038572
      px      :     0.008163
      py      :     0.008854
      dz2     :     0.000605  d :     0.002034
      dxz     :     0.000621
      dyz     :     0.000683
      dx2y2   :     0.000074
      dxy     :     0.000050
 16 H s       :     0.842873  s :     0.842873
      pz      :     0.009227  p :     0.041001
      px      :     0.009651
      py      :     0.022122
      dz2     :     0.000325  d :     0.002034
      dxz     :     0.000079
      dyz     :     0.000582
      dx2y2   :     0.000420
      dxy     :     0.000627
 17 C s       :     3.187938  s :     3.187938
      pz      :     1.064763  p :     3.151554
      px      :     1.121366
      py      :     0.965425
      dz2     :     0.021348  d :     0.068078
      dxz     :     0.008508
      dyz     :     0.010776
      dx2y2   :     0.005976
      dxy     :     0.021470
      f0      :     0.000632  f :     0.002936
      f+1     :     0.000188
      f-1     :     0.000414
      f+2     :     0.000410
      f-2     :     0.000377
      f+3     :     0.000402
      f-3     :     0.000513
 18 H s       :     0.845738  s :     0.845738
      pz      :     0.009975  p :     0.040519
      px      :     0.013796
      py      :     0.016749
      dz2     :     0.000155  d :     0.002035
      dxz     :     0.000335
      dyz     :     0.000381
      dx2y2   :     0.000717
      dxy     :     0.000445
 19 H s       :     0.850317  s :     0.850317
      pz      :     0.021564  p :     0.038597
[...]
      px      :     1.019611
      py      :     1.210638
      dz2     :     0.108697  d :     0.495603
      dxz     :     0.074228
      dyz     :     0.119464
      dx2y2   :     0.095805
      dxy     :     0.097409
      f0      :     0.001473  f :     0.015185
      f+1     :     0.000488
      f-1     :     0.003451
      f+2     :     0.003230
      f-2     :     0.002836
      f+3     :     0.001880
      f-3     :     0.001827
  9 N s       :     3.107603  s :     3.107603
      pz      :     1.096784  p :     3.326920
      px      :     1.226232
      py      :     1.003904
      dz2     :     0.108750  d :     0.495615
      dxz     :     0.123187
      dyz     :     0.070554
      dx2y2   :     0.093861
      dxy     :     0.099263
      f0      :     0.001473  f :     0.015185
      f+1     :     0.003690
      f-1     :     0.000251
      f+2     :     0.003568
      f-2     :     0.002499
      f+3     :     0.001878
      f-3     :     0.001826
 10 C s       :     2.729806  s :     2.729806
      pz      :     0.849292  p :     2.576812
      px      :     0.967386
      py      :     0.760135
      dz2     :     0.155403  d :     0.729559
      dxz     :     0.193785
      dyz     :     0.069167
      dx2y2   :     0.147592
      dxy     :     0.163612
      f0      :     0.005523  f :     0.062123
      f+1     :     0.016182
      f-1     :     0.000970
      f+2     :     0.012750
      f-2     :     0.010557
      f+3     :     0.007963
      f-3     :     0.008179
 11 C s       :     2.729805  s :     2.729805
      pz      :     0.849182  p :     2.576811
      px      :     0.774559
      py      :     0.953070
      dz2     :     0.155338  d :     0.729557
      dxz     :     0.078601
      dyz     :     0.184265
      dx2y2   :     0.145530
      dxy     :     0.165823
      f0      :     0.005519  f :     0.062123
      f+1     :     0.002143
      f-1     :     0.015003
      f+2     :     0.012028
      f-2     :     0.011272
      f+3     :     0.007970
      f-3     :     0.008188
 12 C s       :     2.729806  s :     2.729806
      pz      :     0.849221  p :     2.576810
      px      :     0.849444
      py      :     0.878146
      dz2     :     0.155354  d :     0.729558
      dxz     :     0.121967
      dyz     :     0.140941
      dx2y2   :     0.173827
      dxy     :     0.137469
      f0      :     0.005520  f :     0.062123
      f+1     :     0.007403
      f-1     :     0.009745
      f+2     :     0.010175
      f-2     :     0.013128
      f+3     :     0.007969
      f-3     :     0.008183
 13 C s       :     2.641767  s :     2.641767
      pz      :     0.910912  p :     2.722954
      px      :     0.908880
      py      :     0.903162
      dz2     :     0.114271  d :     0.448754
      dxz     :     0.061774
      dyz     :     0.077805
      dx2y2   :     0.121276
      dxy     :     0.073628
      f0      :     0.004498  f :     0.031699
      f+1     :     0.005087
      f-1     :     0.002723
      f+2     :     0.004287
      f-2     :     0.006201
      f+3     :     0.003816
      f-3     :     0.005087
 14 H s       :     0.696079  s :     0.696079
      pz      :     0.071089  p :     0.273601
      px      :     0.128319
      py      :     0.074193
      dz2     :     0.002654  d :     0.028533
      dxz     :     0.008570
      dyz     :     0.000656
      dx2y2   :     0.008142
      dxy     :     0.008511
 15 H s       :     0.699119  s :     0.699119
      pz      :     0.127478  p :     0.274315
      px      :     0.076118
      py      :     0.070719
      dz2     :     0.009914  d :     0.028523
      dxz     :     0.008425
      dyz     :     0.008514
      dx2y2   :     0.000956
      dxy     :     0.000714
 16 H s       :     0.694910  s :     0.694910
      pz      :     0.079184  p :     0.273381
      px      :     0.070982
      py      :     0.123215
      dz2     :     0.004442  d :     0.028543
      dxz     :     0.001165
      dyz     :     0.008220
      dx2y2   :     0.006782
      dxy     :     0.007934
 17 C s       :     2.641766  s :     2.641766
      pz      :     0.910917  p :     2.722948
      px      :     0.925958
      py      :     0.886073
      dz2     :     0.114332  d :     0.448755
      dxz     :     0.047616
      dyz     :     0.091864
      dx2y2   :     0.070369
      dxy     :     0.124574
      f0      :     0.004502  f :     0.031699
      f+1     :     0.002615
      f-1     :     0.005189
      f+2     :     0.006215
      f-2     :     0.004275
      f+3     :     0.003823
      f-3     :     0.005080
 18 H s       :     0.696080  s :     0.696080
      pz      :     0.071090  p :     0.273599
      px      :     0.103657
      py      :     0.098852
      dz2     :     0.002655  d :     0.028533
      dxz     :     0.004637
      dyz     :     0.004588
      dx2y2   :     0.008906
      dxy     :     0.007748
 19 H s       :     0.699123  s :     0.699123
      pz      :     0.127500  p :     0.274314
      px      :     0.075500
      py      :     0.071314
      dz2     :     0.009916  d :     0.028523
      dxz     :     0.008721
      dyz     :     0.008222
      dx2y2   :     0.000527
      dxy     :     0.001137
 20 H s       :     0.694913  s :     0.694913
      pz      :     0.079170  p :     0.273381
      px      :     0.115908
      py      :     0.078302
      dz2     :     0.004441  d :     0.028542
      dxz     :     0.006622
      dyz     :     0.002760
      dx2y2   :     0.007357
      dxy     :     0.007363
 21 C s       :     2.641768  s :     2.641768
      pz      :     0.910897  p :     2.722957
      px      :     0.883222
      py      :     0.928838
      dz2     :     0.114261  d :     0.448753
      dxz     :     0.099953
      dyz     :     0.039669
      dx2y2   :     0.100758
      dxy     :     0.094113
      f0      :     0.004497  f :     0.031699
      f+1     :     0.004010
      f-1     :     0.003804
      f+2     :     0.005231
      f-2     :     0.005256
      f+3     :     0.003816
      f-3     :     0.005084
 22 H s       :     0.696078  s :     0.696078
      pz      :     0.071086  p :     0.273601
      px      :     0.071750
      py      :     0.130765
      dz2     :     0.002653  d :     0.028533
      dxz     :     0.000625
      dyz     :     0.008601
      dx2y2   :     0.007933
      dxy     :     0.008720
 23 H s       :     0.699118  s :     0.699118
      pz      :     0.127467  p :     0.274315
      px      :     0.068623
      py      :     0.078225
      dz2     :     0.009913  d :     0.028523
      dxz     :     0.008264
      dyz     :     0.008673
      dx2y2   :     0.001020
      dxy     :     0.000652
 24 H s       :     0.694909  s :     0.694909
      pz      :     0.079181  p :     0.273381
      px      :     0.104455
      py      :     0.089745
      dz2     :     0.004442  d :     0.028543
      dxz     :     0.006295
      dyz     :     0.003089
      dx2y2   :     0.007934
      dxy     :     0.006782


                      *****************************
                      * MAYER POPULATION ANALYSIS *
                      *****************************

  NA   - Mulliken gross atomic population
  ZA   - Total nuclear charge
  QA   - Mulliken gross atomic charge
  VA   - Mayer's total valence
  BVA  - Mayer's bonded valence
  FA   - Mayer's free valence

  ATOM       NA         ZA         QA         VA         BVA        FA
  0 Mo    14.1723    14.0000    -0.1723     5.9873     5.9873     0.0000
  1 C      5.6704     6.0000     0.3296     3.1171     3.1171     0.0000
  2 C      5.6714     6.0000     0.3286     3.1162     3.1162    -0.0000
  3 C      5.6708     6.0000     0.3292     3.1167     3.1167    -0.0000
  4 O      8.4201     8.0000    -0.4201     2.0229     2.0229    -0.0000
  5 O      8.4199     8.0000    -0.4199     2.0226     2.0226     0.0000
  6 O      8.4198     8.0000    -0.4198     2.0224     2.0224    -0.0000
  7 N      7.0808     7.0000    -0.0808     3.0294     3.0294    -0.0000
  8 N      7.0812     7.0000    -0.0812     3.0293     3.0293    -0.0000
  9 N      7.0812     7.0000    -0.0812     3.0305     3.0305    -0.0000
 10 C      5.6943     6.0000     0.3057     3.3337     3.3337    -0.0000
 11 C      5.6948     6.0000     0.3052     3.3346     3.3346    -0.0000
 12 C      5.6943     6.0000     0.3057     3.3336     3.3336    -0.0000
 13 C      6.4119     6.0000    -0.4119     3.7860     3.7860     0.0000
 14 H      0.8881     1.0000     0.1119     1.0364     1.0364     0.0000
 15 H      0.8907     1.0000     0.1093     1.0312     1.0312    -0.0000
 16 H      0.8859     1.0000     0.1141     1.0378     1.0378     0.0000
 17 C      6.4105     6.0000    -0.4105     3.7863     3.7863    -0.0000
 18 H      0.8883     1.0000     0.1117     1.0365     1.0365    -0.0000
 19 H      0.8909     1.0000     0.1091     1.0313     1.0313    -0.0000
 20 H      0.8860     1.0000     0.1140     1.0379     1.0379    -0.0000
 21 C      6.4118     6.0000    -0.4118     3.7858     3.7858    -0.0000
 22 H      0.8880     1.0000     0.1120     1.0364     1.0364    -0.0000
 23 H      0.8908     1.0000     0.1092     1.0312     1.0312    -0.0000
 24 H      0.8859     1.0000     0.1141     1.0379     1.0379    -0.0000

  Mayer bond orders larger than 0.100000
B(  0-Mo,  1-C ) :   1.3325 B(  0-Mo,  2-C ) :   1.3315 B(  0-Mo,  3-C ) :   1.3327 
B(  0-Mo,  7-N ) :   0.5560 B(  0-Mo,  8-N ) :   0.5560 B(  0-Mo,  9-N ) :   0.5557 
B(  1-C ,  5-O ) :   1.8976 B(  2-C ,  6-O ) :   1.8975 B(  3-C ,  4-O ) :   1.8978 
B(  7-N , 12-C ) :   2.6387 B(  8-N , 11-C ) :   2.6382 B(  9-N , 10-C ) :   2.6388 
B( 10-C , 21-C ) :   0.7592 B( 11-C , 17-C ) :   0.7600 B( 12-C , 13-C ) :   0.7592 
B( 13-C , 14-H ) :   1.0153 B( 13-C , 15-H ) :   1.0077 B( 13-C , 16-H ) :   1.0166 
B( 17-C , 18-H ) :   1.0149 B( 17-C , 19-H ) :   1.0076 B( 17-C , 20-H ) :   1.0165 
B( 21-C , 22-H ) :   1.0150 B( 21-C , 23-H ) :   1.0078 B( 21-C , 24-H ) :   1.0165 


-------
TIMINGS
-------

Total SCF time: 0 days 0 hours 1 min 3 sec 

Total time                  ....      63.901 sec
Sum of individual times     ....      63.087 sec  ( 98.7%)

Fock matrix formation       ....      55.072 sec  ( 86.2%)
  XC integration            ....       4.468 sec  (  8.1% of F)
    Basis function eval.    ....       0.833 sec  ( 18.6% of XC)
    Density eval.           ....       1.357 sec  ( 30.4% of XC)
    XC-Functional eval.     ....       0.070 sec  (  1.6% of XC)
    XC-Potential eval.      ....       1.307 sec  ( 29.3% of XC)
Diagonalization             ....       2.595 sec  (  4.1%)
Density matrix formation    ....       0.105 sec  (  0.2%)
Population analysis         ....       0.118 sec  (  0.2%)
Initial guess               ....       2.757 sec  (  4.3%)
Orbital Transformation      ....       0.000 sec  (  0.0%)
Orbital Orthonormalization  ....       0.000 sec  (  0.0%)
DIIS solution               ....       1.474 sec  (  2.3%)
Grid generation             ....       0.966 sec  (  1.5%)


           ************************************************************
           *        Program running with 24 parallel MPI-processes    *
           *              working on a common directory               *
           ************************************************************

------------------------------------------------------------------------------
                                ORCA  MP2 
------------------------------------------------------------------------------

Freezing NCore=30 chemical core electrons

-------------
RI-MP2 ENERGY
-------------
Dimension of the basis                    ...  773
Memory devoted to MP2                     ... 5000 MB   
Data format for buffers                   ... DOUBLE
Compression type for matrix containers    ... UNCOMPRESSED
Scaling for aa/bb pairs                   ...   4.000e-01
Scaling for ab pairs                      ...   4.700e-01
Overall scaling of the MP2 energy         ...   1.000e+00
Calculating two index integrals           ... done (    0.036 sec)
Cholesky decomposition of V**-1           ... done (    0.351 sec)

-----------------
RI-TRANSFORMATION (AUX index driven)
-----------------

Dimension of the orbital-basis         ... 773
Dimension of the aux-basis             ... 1907
Transformation of internal/external MOs...   15-  60 to   61- 772
Number Format for Storage              ... Double (8 Byte)
Integral mode                          ... Direct

First Phase: integral generation and transformation of MO indices
  Aux angular momentum 0               ... done (    0.116 sec)
  Aux angular momentum 1               ... done (    0.251 sec)
  Aux angular momentum 2               ... done (    0.339 sec)
  Aux angular momentum 3               ... done (    0.339 sec)
  Aux angular momentum 4               ... done (    0.096 sec)
  Aux angular momentum 5               ... done (    0.127 sec)
  Aux angular momentum 6               ... done (    0.166 sec)
Closing buffer VIA ( 0.47 GB; CompressionRatio= 1.00)
  Phase 1 completed in     1.545 sec
Second Phase: sorting and transformation of aux index

IA-Transformation
Memory available                       ... 4925 MB 
Max. # MO pairs treated in a batch     ... 2    
# of internal orbitals                 ... 46
# batches for internal orbitals        ... 1
Closing buffer IAV ( 0.02 GB; CompressionRatio= 1.00)
(ia|v) transformation done in     0.326 sec

  Phase 2 completed in     0.774 sec
RI-Integral transformation completed in     2.329 sec
Opening buffers                              ... done

Starting loop over batches of integrals:

Operator 0  - window                       ... ( 15- 60)x( 61-772)
Operator 0  - Memory available             ...  5000 MB
Operator 0  - Memory needed per MO         ...  10.4 MB
Operator 0  - Number of orbitals per batch ... 2
Operator 0  - Number of batches            ... 1

OPERATOR  0   PASS   0:  MOs    15 ...   16 +   17 ...   18 +   19 ...   20 +   21 ...   22
                            +   23 ...   24 +   25 ...   26 +   27 ...   28 +   29 ...   30
                            +   31 ...   32 +   33 ...   34 +   35 ...   36 +   37 ...   38
                            +   39 ...   40 +   41 ...   42 +   43 ...   44 +   45 ...   46
                            +   47 ...   48 +   49 ...   50 +   51 ...   52 +   53 ...   54
                            +   55 ...   56 +   57 ...   58 +   59 ...   60
  Reading integrals       ... ok
Time spent in pair loops =     0.169 sec
Deleting buffer (Ka|jb)[aa] ...done

-----------------------------------------------
 RI-MP2 CORRELATION ENERGY:     -1.713654464 Eh
-----------------------------------------------


-------
TIMINGS
-------

Total time                :    6.247 sec
Integral trafo            :    2.342 sec ( 37.5%)
I/O of integrals          :    0.021 sec (  0.3%)
K(i,j) Operators          :    0.092 sec (  1.5%)
T(i,j) pair energies      :    0.021 sec (  0.3%)
V-calculation             :    0.036 sec (  0.6%)
V**(-1/2)                 :    0.351 sec (  5.6%)
Gamma(ia|P)               :    0.000 sec (  0.0%)
Gamma-Trafo               :    0.000 sec (  0.0%)
D(virtual)                :    0.000 sec (  0.0%)
D(internal)               :    0.000 sec (  0.0%)
W(virtual)                :    0.000 sec (  0.0%)
W(internal)               :    0.000 sec (  0.0%)
L(virtual)                :    0.000 sec (  0.0%)
L(internal)               :    0.000 sec (  0.0%)
G(D)                      :    0.000 sec (  0.0%)
G(Z)                      :    0.000 sec (  0.0%)
Z-Vector Solution         :    0.000 sec (  0.0%)
Z-Vector Solution         :    0.000 sec (  0.0%)
3-Index Derivative 
+ Separable RIJ part      :    0.000 sec (  0.0%)
2-Index Derivative 
+ Separable RIJ part      :    0.000 sec (  0.0%)
Separable Gradient (X)    :    0.000 sec (  0.0%)


---------------------------------------
MP2 TOTAL ENERGY:     -805.989753404 Eh
---------------------------------------


-------------------------------------------------------------------------------
                          DFT DISPERSION CORRECTION                            
                                                                               
                              DFTD3 V3.1  Rev 1                                
                          USING Becke-Johnson damping                          
-------------------------------------------------------------------------------
The DSD-BLYP/2013 functional is recognized
Active option DFTDOPT                   ...         4   

molecular C6(AA) [au] = 11344.973916 


            DFT-D V3
 parameters
 s6 scaling factor         :     0.5700 
 a1 scaling factor         :     0.0000 
 s8 scaling factor         :     0.0000 
 a2 scaling factor         :     5.4000 
 ad hoc parameters k1-k3   :    16.0000     1.3333    -4.0000 

 Edisp/kcal,au: -20.787721000929  -0.033127338539 
 E6   /kcal   : -20.787721001 
 E8   /kcal   :  -0.000000000 
 % E8         :   0.000000000 

-------------------------   ----------------
Dispersion correction           -0.033127339
-------------------------   ----------------


-------------------------   --------------------
FINAL SINGLE POINT ENERGY      -806.022880742977
-------------------------   --------------------


                            ***************************************
                            *     ORCA property calculations      *
                            ***************************************


  WARNING: The energy has been calculated at the MP2 level but the densities
           used in the property calculations are still SCF densities
           MP2 response densities have not been calculated 
           use %mp2 Density relaxed end
           or  %mp2 Density unrelaxed end

                                    ---------------------
                                    Active property flags
                                    ---------------------
   (+) Dipole Moment


------------------------------------------------------------------------------
                       ORCA ELECTRIC PROPERTIES CALCULATION
------------------------------------------------------------------------------

Dipole Moment Calculation                       ... on
Quadrupole Moment Calculation                   ... off
Polarizability Calculation                      ... off
GBWName                                         ... MOR36_pr37.gbw
Electron density file                           ... MOR36_pr37.scfp
The origin for moment calculation is the CENTER OF MASS  = ( 0.000037, -0.000023 -0.170139)

-------------
DIPOLE MOMENT
-------------
                                X             Y             Z
Electronic contribution:      0.00888      -0.00578     -39.91993
Nuclear contribution   :     -0.01011       0.00649      45.69854
                        -----------------------------------------
Total Dipole Moment    :     -0.00123       0.00072       5.77862
                        -----------------------------------------
Magnitude (a.u.)       :      5.77862
Magnitude (Debye)      :     14.68808



--------------------
Rotational spectrum 
--------------------
 
Rotational constants in cm-1:     0.011429     0.011429     0.011227 
Rotational constants in MHz :   342.640201   342.631727   336.586559 

 Dipole components along the rotational axes: 
x,y,z [a.u.] :     0.002064     0.001235     5.778618 
x,y,z [Debye]:     0.005245     0.003140    14.688080 

 

Timings for individual modules:

Sum of individual times         ...       74.094 sec (=   1.235 min)
GTO integral calculation        ...        2.947 sec (=   0.049 min)   4.0 %
SCF iterations                  ...       64.300 sec (=   1.072 min)  86.8 %
MP2 module                      ...        6.848 sec (=   0.114 min)   9.2 %
                             ****ORCA TERMINATED NORMALLY****
TOTAL RUN TIME: 0 days 0 hours 1 minutes 14 seconds 708 msec
