
                                 *****************
                                 * O   R   C   A *
                                 *****************

           --- An Ab Initio, DFT and Semiempirical electronic structure package ---

                  #######################################################
                  #                        -***-                        #
                  #          Department of theory and spectroscopy      #
                  #               Directorship: Frank Neese             #
                  #        Max Planck Institute fuer Kohlenforschung    #
                  #                Kaiser Wilhelm Platz 1               #
                  #                 D-45470 Muelheim/Ruhr               #
                  #                      Germany                        #
                  #                                                     #
                  #                  All rights reserved                #
                  #                        -***-                        #
                  #######################################################


                         Program Version 4.2.0 -  RELEASE  -


 With contributions from (in alphabetic order):
   Daniel Aravena         : Magnetic Suceptibility
   Michael Atanasov       : Ab Initio Ligand Field Theory (pilot matlab implementation)
   Alexander A. Auer      : GIAO ZORA, VPT2
   Ute Becker             : Parallelization
   Giovanni Bistoni       : ED, misc. LED, open-shell LED, HFLED
   Martin Brehm           : Molecular dynamics
   Dmytro Bykov           : SCF Hessian
   Vijay G. Chilkuri      : MRCI spin determinant printing, contributions to CSF-ICE
   Dipayan Datta          : RHF DLPNO-CCSD density
   Achintya Kumar Dutta   : EOM-CC, STEOM-CC
   Dmitry Ganyushin       : Spin-Orbit,Spin-Spin,Magnetic field MRCI
   Miquel Garcia          : C-PCM Hessian, Gaussian charge scheme
   Yang Guo               : DLPNO-NEVPT2, CIM, IAO-localization
   Andreas Hansen         : Spin unrestricted coupled pair/coupled cluster methods
   Benjamin Helmich-Paris : CASSCF linear response (MC-RPA)
   Lee Huntington         : MR-EOM, pCC
   Robert Izsak           : Overlap fitted RIJCOSX, COSX-SCS-MP3, EOM
   Christian Kollmar      : KDIIS, OOCD, Brueckner-CCSD(T), CCSD density
   Simone Kossmann        : Meta GGA functionals, TD-DFT gradient, OOMP2, MP2 Hessian
   Martin Krupicka        : AUTO-CI
   Lucas Lang             : DCDCAS
   Dagmar Lenk            : GEPOL surface, SMD
   Dimitrios Liakos       : Extrapolation schemes; Compound Job, initial MDCI parallelization
   Dimitrios Manganas     : Further ROCIS development; embedding schemes
   Dimitrios Pantazis     : SARC Basis sets
   Taras Petrenko         : DFT Hessian,TD-DFT gradient, ASA, ECA, R-Raman, ABS, FL, XAS/XES, NRVS
   Peter Pinski           : DLPNO-MP2, DLPNO-MP2 Gradient
   Christoph Reimann      : Effective Core Potentials
   Marius Retegan         : Local ZFS, SOC
   Christoph Riplinger    : Optimizer, TS searches, QM/MM, DLPNO-CCSD(T), (RO)-DLPNO pert. Triples
   Tobias Risthaus        : Range-separated hybrids, TD-DFT gradient, RPA, STAB
   Michael Roemelt        : Original ROCIS implementation
   Masaaki Saitow         : Open-shell DLPNO-CCSD energy and density
   Barbara Sandhoefer     : DKH picture change effects
   Avijit Sen             : IP-ROCIS
   Kantharuban Sivalingam : CASSCF convergence, NEVPT2, FIC-MRCI
   Bernardo de Souza      : ESD, SOC TD-DFT
   Georgi Stoychev        : AutoAux, RI-MP2 NMR
   Willem Van den Heuvel  : Paramagnetic NMR
   Boris Wezisla          : Elementary symmetry handling
   Frank Wennmohs         : Technical directorship


 We gratefully acknowledge several colleagues who have allowed us to
 interface, adapt or use parts of their codes:
   Stefan Grimme, W. Hujo, H. Kruse,             : VdW corrections, initial TS optimization,
                  C. Bannwarth                     DFT functionals, gCP, sTDA/sTD-DF
   Ed Valeev, F. Pavosevic, A. Kumar             : LibInt (2-el integral package), F12 methods
   Garnet Chan, S. Sharma, J. Yang, R. Olivares  : DMRG
   Ulf Ekstrom                                   : XCFun DFT Library
   Mihaly Kallay                                 : mrcc  (arbitrary order and MRCC methods)
   Andreas Klamt, Michael Diedenhofen            : otool_cosmo (COSMO solvation model)
   Jiri Pittner, Ondrej Demel                    : Mk-CCSD
   Frank Weinhold                                : gennbo (NPA and NBO analysis)
   Christopher J. Cramer and Donald G. Truhlar   : smd solvation model
   Lars Goerigk                                  : TD-DFT with DH, B97 family of functionals
   V. Asgeirsson, H. Jonsson                     : NEB implementation
   FAccTs GmbH                                   : IRC, NEB, NEB-TS, Multilevel, MM, QM/MM, CI optimization
   S Lehtola, MJT Oliveira, MAL Marques          : LibXC Library


 Your calculation uses the libint2 library for the computation of 2-el integrals
 For citations please refer to: http://libint.valeyev.net

 Your ORCA version has been built with support for libXC version: 4.2.3
 For citations please refer to: https://tddft.org/programs/libxc/

 This ORCA versions uses:
   CBLAS   interface :  Fast vector & matrix operations
   LAPACKE interface :  Fast linear algebra routines
   SCALAPACK package :  Parallel linear algebra routines


Your calculation utilizes the atom-pairwise dispersion correction
with the Becke-Johnson damping scheme (D3BJ)
Cite in your paper:
S.Grimme, S.Ehrlich, L.Goerigk, J Comput Chem, (2011), 32, 1456–1465 
S.Grimme, J.Antony, S.Ehrlich and H.Krieg, J.Chem.Phys., 132, (2010), 154104 
   

----- Orbital basis set information -----
Your calculation utilizes the basis: def2-TZVPPD
   F. Weigend and R. Ahlrichs, Phys. Chem. Chem. Phys. 7, 3297 (2005).
   D. Rappoport and F. Furche, J. Chem. Phys. 133 134105 (2010).

----- AuxC basis set information -----
Your calculation utilizes the auxiliary basis: def2-TZVPPD/C
   A. Hellweg, C. Hattig, S. Hofener and W. Klopper, Theor. Chem. Acc. 117, 587 (2007).

----- AuxJK basis set information -----
Your calculation utilizes the auxiliary basis: def2/JK
   H-Ba, Hf-Rn: F. Weigend, J. Comput. Chem. 29, 167 (2008).

cite the ECPs for Ru [Def2-ECP] as follows:
Ce-Yb(ecp-28): M. Dolg, H. Stoll, H.Preuss, J. Chem. Phys., 1989, 90, 1730-1734.
Y-Cd(ecp-28), Hf-Hg(ecp-46): D. Andrae,U. Haeussermann, M. Dolg, H. Stoll, H. Preuss, Theor. Chim. Acta, 1990, 77, 123-141.
In-Sb(ecp-28), Tl-Bi(ecp-46): B. Metz, H. Stoll, M. Dolg, J. Chem. Phys., 2000, 113, 2563-2569.
Te-Xe(ecp-28), Po-Rn(ecp-46): K. A. Peterson, D. Figgen, E. Goll, H. Stoll, M. Dolg, J. Chem. Phys., 2003, 119, 11113-11123.
Rb(ecp-28), Cs(ecp-46): T. Leininger, A. Nicklass, W. Kuechle, H. Stoll, M. Dolg, A. Bergner, Chem. Phys. Lett., 1996, 255, 274-280.
Sr(ecp-28), Ba(ecp-46): M. Kaupp, P. V. Schleyer, H. Stoll and H. Preuss, J. Chem. Phys., 1991, 94, 1360-1366.
La(ecp-46): M. Dolg, H. Stoll, A. Savin, H. Preuss, Theor. Chim. Acta, 1989, 75, 173-194.
Lu(ecp-28): X. Cao, M. Dolg, J. Chem. Phys., 2001, 115, 7348-7355.

ECP parameters for Ru [Def2-ECP] have been obtained from:
TURBOMOLE (7.0.2)

================================================================================
                                        WARNINGS
                       Please study these warnings very carefully!
================================================================================


WARNING: No MP2 level density has been requested!
         To caclulate MP2 level properties use
         %mp2 Density relaxed end
         or
         %mp2 Density unrelaxed end
         Otherwise for double-hybrid DFT only the energy is correct!

WARNING: There are different parametrizations of Gershom Martin's DSD-DFs
         for use with and without D3(BJ)!
         You are using the D3(BJ) parametrized version,
         consistent with the 2013 article (S. Kozuch and J. M. L. Martin, JCC 2013, 34, 2327)

WARNING: The frozen-core approximation is turned on by default for 
         the MP2 part of double-hybrid DFT.

INFO   : the flag for use of LIBINT has been found!

================================================================================
                                       INPUT FILE
================================================================================
NAME = MOR33_pr28.in
|  1> #
|  2> # MOR33_pr28 ri-DSD-BLYP/2013-D3BJ/Def2-TZVPPD
|  3> #
|  4> ! rijk ri-dsd-blyp/2013 d3bj def2-tzvppd def2/jk def2-tzvppd/c grid4 nofinalgrid
|  5> 
|  6> *xyz 0 1
|  7> C        1.962238    1.228976    0.498763 
|  8> C        1.599117    0.285883    1.541183 
|  9> C        2.190996   -0.926462   -0.368778 
| 10> C        2.300550    0.493131   -0.671789 
| 11> C        2.081248    2.713946    0.664976 
| 12> H        1.434728    3.080045    1.466376 
| 13> H        1.821015    3.245065   -0.254703 
| 14> H        3.112287    2.986784    0.927647 
| 15> C        2.741378    1.051608   -1.988266 
| 16> H        2.535990    2.123448   -2.051886 
| 17> H        2.213045    0.558789   -2.809947 
| 18> H        3.820515    0.902993   -2.128525 
| 19> C        2.527241   -2.035347   -1.317221 
| 20> H        3.613873   -2.134320   -1.446849 
| 21> H        2.080344   -1.846887   -2.298459 
| 22> H        2.144835   -2.993343   -0.953257 
| 23> C        1.716574   -2.315630    1.788054 
| 24> H        2.711935   -2.577282    2.171299 
| 25> H        1.368788   -3.152284    1.175589 
| 26> H        1.050088   -2.217418    2.648594 
| 27> C        1.340513    0.619038    2.979845 
| 28> H        2.276059    0.647386    3.557074 
| 29> H        0.683714   -0.121696    3.445256 
| 30> H        0.861589    1.596880    3.080055 
| 31> Ru       0.207249   -0.005545   -0.119227 
| 32> Cl      -0.429544   -0.245973   -2.480800 
| 33> P       -1.456891    1.528216    0.068580 
| 34> C       -1.650760    2.737817   -1.304822 
| 35> H       -1.703179    2.179367   -2.242601 
| 36> H       -0.763254    3.377318   -1.338338 
| 37> H       -2.542801    3.360896   -1.175052 
| 38> C       -1.549065    2.651656    1.528190 
| 39> H       -2.472379    3.241595    1.506577 
| 40> H       -0.697323    3.336564    1.527717 
| 41> H       -1.520496    2.059136    2.446687 
| 42> C       -3.144680    0.720288    0.161598 
| 43> H       -3.432756    0.709722    1.219807 
| 44> H       -3.887248    1.321720   -0.374189 
| 45> C        1.787636   -1.042026    1.001372 
| 46> P       -1.484414   -1.469966    0.216463 
| 47> H       -2.382409   -3.625079   -0.568542 
| 48> H       -0.624918   -3.689033   -0.270965 
| 49> H       -1.236340   -2.863867   -1.723131 
| 50> C       -3.065590   -0.710530   -0.380679 
| 51> C       -1.439182   -3.076884   -0.670420 
| 52> C       -1.931261   -2.000447    1.926464 
| 53> H       -2.988264   -0.701756   -1.472521 
| 54> H       -3.935017   -1.311110   -0.088429 
| 55> H       -1.104361   -2.563780    2.366010 
| 56> H       -2.827619   -2.630913    1.925421 
| 57> H       -2.109292   -1.117280    2.546403 
| 58> *
| 59> 
| 60> %maxcore 5000
| 61> 
| 62> %pal
| 63> nprocs = 24
| 64> end
| 65> 
| 66> 
| 67>                          ****END OF INPUT****
================================================================================

                       ****************************
                       * Single Point Calculation *
                       ****************************

---------------------------------
CARTESIAN COORDINATES (ANGSTROEM)
---------------------------------
  C      1.962238    1.228976    0.498763
  C      1.599117    0.285883    1.541183
  C      2.190996   -0.926462   -0.368778
  C      2.300550    0.493131   -0.671789
  C      2.081248    2.713946    0.664976
  H      1.434728    3.080045    1.466376
  H      1.821015    3.245065   -0.254703
  H      3.112287    2.986784    0.927647
  C      2.741378    1.051608   -1.988266
  H      2.535990    2.123448   -2.051886
  H      2.213045    0.558789   -2.809947
  H      3.820515    0.902993   -2.128525
  C      2.527241   -2.035347   -1.317221
  H      3.613873   -2.134320   -1.446849
  H      2.080344   -1.846887   -2.298459
  H      2.144835   -2.993343   -0.953257
  C      1.716574   -2.315630    1.788054
  H      2.711935   -2.577282    2.171299
  H      1.368788   -3.152284    1.175589
  H      1.050088   -2.217418    2.648594
  C      1.340513    0.619038    2.979845
  H      2.276059    0.647386    3.557074
  H      0.683714   -0.121696    3.445256
  H      0.861589    1.596880    3.080055
  Ru     0.207249   -0.005545   -0.119227
  Cl    -0.429544   -0.245973   -2.480800
  P     -1.456891    1.528216    0.068580
  C     -1.650760    2.737817   -1.304822
  H     -1.703179    2.179367   -2.242601
  H     -0.763254    3.377318   -1.338338
  H     -2.542801    3.360896   -1.175052
  C     -1.549065    2.651656    1.528190
  H     -2.472379    3.241595    1.506577
  H     -0.697323    3.336564    1.527717
  H     -1.520496    2.059136    2.446687
  C     -3.144680    0.720288    0.161598
  H     -3.432756    0.709722    1.219807
  H     -3.887248    1.321720   -0.374189
  C      1.787636   -1.042026    1.001372
  P     -1.484414   -1.469966    0.216463
  H     -2.382409   -3.625079   -0.568542
  H     -0.624918   -3.689033   -0.270965
  H     -1.236340   -2.863867   -1.723131
  C     -3.065590   -0.710530   -0.380679
  C     -1.439182   -3.076884   -0.670420
  C     -1.931261   -2.000447    1.926464
  H     -2.988264   -0.701756   -1.472521
  H     -3.935017   -1.311110   -0.088429
  H     -1.104361   -2.563780    2.366010
  H     -2.827619   -2.630913    1.925421
  H     -2.109292   -1.117280    2.546403

----------------------------
CARTESIAN COORDINATES (A.U.)
----------------------------
  NO LB      ZA    FRAG     MASS         X           Y           Z
   0 C     6.0000    0    12.011    3.708092    2.322428    0.942525
   1 C     6.0000    0    12.011    3.021893    0.540241    2.912414
   2 C     6.0000    0    12.011    4.140382   -1.750759   -0.696889
   3 C     6.0000    0    12.011    4.347409    0.931883   -1.269497
   4 C     6.0000    0    12.011    3.932989    5.128615    1.256623
   5 H     1.0000    0     1.008    2.711243    5.820442    2.771049
   6 H     1.0000    0     1.008    3.441220    6.132284   -0.481319
   7 H     1.0000    0     1.008    5.881370    5.644204    1.752999
   8 C     6.0000    0    12.011    5.180454    1.987251   -3.757278
   9 H     1.0000    0     1.008    4.792327    4.012735   -3.877503
  10 H     1.0000    0     1.008    4.182049    1.055958   -5.310030
  11 H     1.0000    0     1.008    7.219727    1.706409   -4.022329
  12 C     6.0000    0    12.011    4.775793   -3.846248   -2.489187
  13 H     1.0000    0     1.008    6.829230   -4.033280   -2.734148
  14 H     1.0000    0     1.008    3.931280   -3.490111   -4.343458
  15 H     1.0000    0     1.008    4.053151   -5.656598   -1.801395
  16 C     6.0000    0    12.011    3.243855   -4.375907    3.378932
  17 H     1.0000    0     1.008    5.124814   -4.870357    4.103160
  18 H     1.0000    0     1.008    2.586634   -5.956953    2.221541
  19 H     1.0000    0     1.008    1.984379   -4.190313    5.005117
  20 C     6.0000    0    12.011    2.533202    1.169812    5.631091
  21 H     1.0000    0     1.008    4.301128    1.223382    6.721896
  22 H     1.0000    0     1.008    1.292032   -0.229972    6.510590
  23 H     1.0000    0     1.008    1.628167    3.017666    5.820460
  24 Ru   16.0000*   0   101.070    0.391644   -0.010479   -0.225306
  25 Cl   17.0000    0    35.453   -0.811721   -0.464822   -4.688033
  26 P    15.0000    0    30.974   -2.753125    2.887910    0.129597
  27 C     6.0000    0    12.011   -3.119484    5.173724   -2.465756
  28 H     1.0000    0     1.008   -3.218542    4.118407   -4.237902
  29 H     1.0000    0     1.008   -1.442341    6.382206   -2.529092
  30 H     1.0000    0     1.008   -4.805198    6.351173   -2.220526
  31 C     6.0000    0    12.011   -2.927309    5.010904    2.887861
  32 H     1.0000    0     1.008   -4.672119    6.125727    2.847018
  33 H     1.0000    0     1.008   -1.317749    6.305192    2.886967
  34 H     1.0000    0     1.008   -2.873321    3.891203    4.623568
  35 C     6.0000    0    12.011   -5.942584    1.361147    0.305376
  36 H     1.0000    0     1.008   -6.486969    1.341180    2.305101
  37 H     1.0000    0     1.008   -7.345834    2.497689   -0.707115
  38 C     6.0000    0    12.011    3.378142   -1.969144    1.892319
  39 P    15.0000    0    30.974   -2.805136   -2.777833    0.409056
  40 H     1.0000    0     1.008   -4.502101   -6.850407   -1.074389
  41 H     1.0000    0     1.008   -1.180924   -6.971262   -0.512050
  42 H     1.0000    0     1.008   -2.336344   -5.411924   -3.256246
  43 C     6.0000    0    12.011   -5.793126   -1.342707   -0.719379
  44 C     6.0000    0    12.011   -2.719660   -5.814468   -1.266910
  45 C     6.0000    0    12.011   -3.649554   -3.780297    3.640489
  46 H     1.0000    0     1.008   -5.647001   -1.326127   -2.782661
  47 H     1.0000    0     1.008   -7.436104   -2.477639   -0.167107
  48 H     1.0000    0     1.008   -2.086940   -4.844842    4.471111
  49 H     1.0000    0     1.008   -5.343426   -4.971705    3.638518
  50 H     1.0000    0     1.008   -3.985984   -2.111353    4.812004
* core charge reduced due to ECP

--------------------------------
INTERNAL COORDINATES (ANGSTROEM)
--------------------------------
 C      0   0   0     0.000000000000     0.00000000     0.00000000
 C      1   0   0     1.451868011801     0.00000000     0.00000000
 C      1   2   0     2.334709956523    72.03736279     0.00000000
 C      1   2   3     1.423416614373   108.30536822     0.99186863
 C      1   2   3     1.498974997246   125.71450130   186.10012122
 H      5   1   2     1.092821370674   111.48258670   332.58094546
 H      5   1   2     1.093443217314   111.65604889   211.34949665
 H      5   1   2     1.098397946104   110.31113232    91.63995104
 C      4   1   2     1.496441638235   126.90870027   180.30660317
 H      9   4   1     1.093193816550   111.20862433   345.26169298
 H      9   4   1     1.094150808349   110.50695045   225.46399737
 H      9   4   1     1.098314922996   110.56608239   105.29897135
 C      3   1   2     1.497408016373   160.22580427   185.92263169
 H     13   3   1     1.098803065402   111.31462369    67.98044898
 H     13   3   1     1.094560237197   110.40336559   307.70245955
 H     13   3   1     1.093828358632   111.05819004   188.13377531
 C      3   1   2     2.608982223499    99.58829371   354.42630464
 H     17   3   1     1.098217655772   104.50942137   261.72676816
 H     17   3   1     1.093644546339    90.12582841   153.55385774
 H     17   3   1     1.092876148857   135.56069201    36.60110030
 C      2   1   3     1.499205333864   125.99989216   170.90422616
 H     21   2   1     1.099655966956   111.26591449   275.00922079
 H     21   2   1     1.093928326755   111.18381507   154.89277572
 H     21   2   1     1.093428195557   111.23717134    34.89837035
 Ru     2   1   3     2.186135443358    72.57285429   298.65886170
 Cl    25   2   1     2.457709906063   155.20490977    43.61862651
 P     25   2   1     2.270915281108   108.28324077   276.47132528
 C     27  25   2     1.840367577949   117.34763191   118.47708974
 H     28  27  25     1.092723023873   108.03509549    51.72126822
 H     28  27  25     1.094418453469   108.75271875   294.57753028
 H     28  27  25     1.095812410416   111.78326537   173.73350828
 C     27  25   2     1.844200323169   120.89810995   354.95778148
 H     32  27  25     1.095903229344   110.75833146   186.42516683
 H     32  27  25     1.092960944754   110.02617034    66.32527867
 H     32  27  25     1.093404260633   109.47728610   307.00366933
 C     27  25   2     1.873507862281   111.90163552   237.27065555
 H     36  27  25     1.096770582124   106.77890217   100.25074135
 H     36  27  25     1.095534296413   110.46271035   216.73657598
 C      3   1   2     1.432956855665    72.03576268   358.16785475
 P     25   2   1     2.262507535216   116.72027651   185.25356619
 H     40  25   2     2.463156493774   142.33635759   244.51048388
 H     41  40  25     1.783652656805    67.60297736    46.74138329
 H     42  41  40     1.778629214085    60.55642386   284.94816856
 C     36  27  25     1.532174834003   109.79380307   340.73630087
 C     43  42  41     1.093033196556    35.61449590    35.11756263
 C     40  25   2     1.845314540335   120.30588536    16.80375395
 H     44  36  27     1.094611915848   110.43789331   285.44929129
 H     44  36  27     1.096362032920   112.10327020   163.63392148
 H     46  40  25     1.092844163184   109.73511792   294.95209917
 H     46  40  25     1.095876876829   111.25807992   174.45767310
 H     46  40  25     1.093619381033   109.42470283    53.46592860

---------------------------
INTERNAL COORDINATES (A.U.)
---------------------------
 C      0   0   0     0.000000000000     0.00000000     0.00000000
 C      1   0   0     2.743632924904     0.00000000     0.00000000
 C      1   2   0     4.411962419968    72.03736279     0.00000000
 C      1   2   3     2.689867575638   108.30536822     0.99186863
 C      1   2   3     2.832652226391   125.71450130   186.10012122
 H      5   1   2     2.065133103870   111.48258670   332.58094546
 H      5   1   2     2.066308223718   111.65604889   211.34949665
 H      5   1   2     2.075671304199   110.31113232    91.63995104
 C      4   1   2     2.827864871660   126.90870027   180.30660317
 H      9   4   1     2.065836924576   111.20862433   345.26169298
 H      9   4   1     2.067645376988   110.50695045   225.46399737
 H      9   4   1     2.075514413261   110.56608239   105.29897135
 C      3   1   2     2.829691061684   160.22580427   185.92263169
 H     13   3   1     2.076436868723   111.31462369    67.98044898
 H     13   3   1     2.068419085382   110.40336559   307.70245955
 H     13   3   1     2.067036035331   111.05819004   188.13377531
 C      3   1   2     4.930261890681    99.58829371   354.42630464
 H     17   3   1     2.075330604847   104.50942137   261.72676816
 H     17   3   1     2.066688680437    90.12582841   153.55385774
 H     17   3   1     2.065236619634   135.56069201    36.60110030
 C      2   1   3     2.833087499516   125.99989216   170.90422616
 H     21   2   1     2.078048619078   111.26591449   275.00922079
 H     21   2   1     2.067224947707   111.18381507   154.89277572
 H     21   2   1     2.066279836711   111.23717134    34.89837035
 Ru     2   1   3     4.131197279606    72.57285429   298.65886170
 Cl    25   2   1     4.644398639085   155.20490977    43.61862651
 P     25   2   1     4.291407954631   108.28324077   276.47132528
 C     27  25   2     3.477790708072   117.34763191   118.47708974
 H     28  27  25     2.064947255350   108.03509549    51.72126822
 H     28  27  25     2.068151152966   108.75271875   294.57753028
 H     28  27  25     2.070785349839   111.78326537   173.73350828
 C     27  25   2     3.485033546878   120.89810995   354.95778148
 H     32  27  25     2.070956972740   110.75833146   186.42516683
 H     32  27  25     2.065396860656   110.02617034    66.32527867
 H     32  27  25     2.066234606259   109.47728610   307.00366933
 C     27  25   2     3.540416769459   111.90163552   237.27065555
 H     36  27  25     2.072596031956   106.77890217   100.25074135
 H     36  27  25     2.070259790539   110.46271035   216.73657598
 C      3   1   2     2.707896018931    72.03576268   358.16785475
 P     25   2   1     4.275519617492   116.72027651   185.25356619
 H     40  25   2     4.654691198222   142.33635759   244.51048388
 H     41  40  25     3.370615039402    67.60297736    46.74138329
 H     42  41  40     3.361122108412    60.55642386   284.94816856
 C     36  27  25     2.895390825552   109.79380307   340.73630087
 C     43  42  41     2.065533396776    35.61449590    35.11756263
 C     40  25   2     3.487139112176   120.30588536    16.80375395
 H     44  36  27     2.068516743879   110.43789331   285.44929129
 H     44  36  27     2.071823985848   112.10327020   163.63392148
 H     46  40  25     2.065176175472   109.73511792   294.95209917
 H     46  40  25     2.070907173704   111.25807992   174.45767310
 H     46  40  25     2.066641124901   109.42470283    53.46592860

---------------------
BASIS SET INFORMATION
---------------------
There are 5 groups of distinct atoms

 Group   1 Type C   : 12s6p3d1f contracted to 6s3p3d1f pattern {621111/411/111/1}
 Group   2 Type H   : 5s3p1d contracted to 3s3p1d pattern {311/111/1}
 Group   3 Type Ru  : 7s7p5d2f1g contracted to 6s4p3d2f1g pattern {211111/4111/311/11/1}
 Group   4 Type Cl  : 15s10p4d1f contracted to 6s6p4d1f pattern {732111/511111/1111/1}
 Group   5 Type P   : 15s9p4d1f contracted to 6s5p4d1f pattern {732111/51111/1111/1}

Atom   0C    basis set group =>   1
Atom   1C    basis set group =>   1
Atom   2C    basis set group =>   1
Atom   3C    basis set group =>   1
Atom   4C    basis set group =>   1
Atom   5H    basis set group =>   2
Atom   6H    basis set group =>   2
Atom   7H    basis set group =>   2
Atom   8C    basis set group =>   1
Atom   9H    basis set group =>   2
Atom  10H    basis set group =>   2
Atom  11H    basis set group =>   2
Atom  12C    basis set group =>   1
Atom  13H    basis set group =>   2
Atom  14H    basis set group =>   2
Atom  15H    basis set group =>   2
Atom  16C    basis set group =>   1
Atom  17H    basis set group =>   2
Atom  18H    basis set group =>   2
Atom  19H    basis set group =>   2
Atom  20C    basis set group =>   1
Atom  21H    basis set group =>   2
Atom  22H    basis set group =>   2
Atom  23H    basis set group =>   2
Atom  24Ru   basis set group =>   3
Atom  25Cl   basis set group =>   4
Atom  26P    basis set group =>   5
Atom  27C    basis set group =>   1
Atom  28H    basis set group =>   2
Atom  29H    basis set group =>   2
Atom  30H    basis set group =>   2
Atom  31C    basis set group =>   1
Atom  32H    basis set group =>   2
Atom  33H    basis set group =>   2
Atom  34H    basis set group =>   2
Atom  35C    basis set group =>   1
Atom  36H    basis set group =>   2
Atom  37H    basis set group =>   2
Atom  38C    basis set group =>   1
Atom  39P    basis set group =>   5
Atom  40H    basis set group =>   2
Atom  41H    basis set group =>   2
Atom  42H    basis set group =>   2
Atom  43C    basis set group =>   1
Atom  44C    basis set group =>   1
Atom  45C    basis set group =>   1
Atom  46H    basis set group =>   2
Atom  47H    basis set group =>   2
Atom  48H    basis set group =>   2
Atom  49H    basis set group =>   2
Atom  50H    basis set group =>   2
---------------------------------
AUXILIARY/C BASIS SET INFORMATION
---------------------------------
There are 5 groups of distinct atoms

 Group   1 Type C   : 9s7p6d4f1g contracted to 9s7p5d4f1g pattern {111111111/1111111/21111/1111/1}
 Group   2 Type H   : 5s4p3d1f contracted to 5s4p3d1f pattern {11111/1111/111/1}
 Group   3 Type Ru  : 8s7p6d5f4g3h1i contracted to 8s7p6d5f4g3h1i pattern {11111111/1111111/111111/11111/1111/111/1}
 Group   4 Type Cl  : 12s9p8d6f2g contracted to 12s9p8d6f2g pattern {111111111111/111111111/11111111/111111/11}
 Group   5 Type P   : 12s9p8d6f2g contracted to 12s9p8d6f2g pattern {111111111111/111111111/11111111/111111/11}

Atom   0C    basis set group =>   1
Atom   1C    basis set group =>   1
Atom   2C    basis set group =>   1
Atom   3C    basis set group =>   1
Atom   4C    basis set group =>   1
Atom   5H    basis set group =>   2
Atom   6H    basis set group =>   2
Atom   7H    basis set group =>   2
Atom   8C    basis set group =>   1
Atom   9H    basis set group =>   2
Atom  10H    basis set group =>   2
Atom  11H    basis set group =>   2
Atom  12C    basis set group =>   1
Atom  13H    basis set group =>   2
Atom  14H    basis set group =>   2
Atom  15H    basis set group =>   2
Atom  16C    basis set group =>   1
Atom  17H    basis set group =>   2
Atom  18H    basis set group =>   2
Atom  19H    basis set group =>   2
Atom  20C    basis set group =>   1
Atom  21H    basis set group =>   2
Atom  22H    basis set group =>   2
Atom  23H    basis set group =>   2
Atom  24Ru   basis set group =>   3
Atom  25Cl   basis set group =>   4
Atom  26P    basis set group =>   5
Atom  27C    basis set group =>   1
Atom  28H    basis set group =>   2
Atom  29H    basis set group =>   2
Atom  30H    basis set group =>   2
Atom  31C    basis set group =>   1
Atom  32H    basis set group =>   2
Atom  33H    basis set group =>   2
Atom  34H    basis set group =>   2
Atom  35C    basis set group =>   1
Atom  36H    basis set group =>   2
Atom  37H    basis set group =>   2
Atom  38C    basis set group =>   1
Atom  39P    basis set group =>   5
Atom  40H    basis set group =>   2
Atom  41H    basis set group =>   2
Atom  42H    basis set group =>   2
Atom  43C    basis set group =>   1
Atom  44C    basis set group =>   1
Atom  45C    basis set group =>   1
Atom  46H    basis set group =>   2
Atom  47H    basis set group =>   2
Atom  48H    basis set group =>   2
Atom  49H    basis set group =>   2
Atom  50H    basis set group =>   2
----------------------------------
AUXILIARY/JK BASIS SET INFORMATION
----------------------------------
There are 5 groups of distinct atoms

 Group   1 Type C   : 14s10p6d2f1g contracted to 10s8p5d1f1g pattern {5111111111/31111111/21111/2/1}
 Group   2 Type H   : 4s2p2d contracted to 2s2p2d pattern {31/11/11}
 Group   3 Type Ru  : 13s12p10d9f6g3h2i contracted to 11s10p9d8f6g3h2i pattern {31111111111/3111111111/211111111/21111111/111111/111/11}
 Group   4 Type Cl  : 16s12p10d4f1g contracted to 13s11p9d4f1g pattern {4111111111111/21111111111/211111111/1111/1}
 Group   5 Type P   : 16s12p10d4f1g contracted to 13s11p9d4f1g pattern {4111111111111/21111111111/211111111/1111/1}

Atom   0C    basis set group =>   1
Atom   1C    basis set group =>   1
Atom   2C    basis set group =>   1
Atom   3C    basis set group =>   1
Atom   4C    basis set group =>   1
Atom   5H    basis set group =>   2
Atom   6H    basis set group =>   2
Atom   7H    basis set group =>   2
Atom   8C    basis set group =>   1
Atom   9H    basis set group =>   2
Atom  10H    basis set group =>   2
Atom  11H    basis set group =>   2
Atom  12C    basis set group =>   1
Atom  13H    basis set group =>   2
Atom  14H    basis set group =>   2
Atom  15H    basis set group =>   2
Atom  16C    basis set group =>   1
Atom  17H    basis set group =>   2
Atom  18H    basis set group =>   2
Atom  19H    basis set group =>   2
Atom  20C    basis set group =>   1
Atom  21H    basis set group =>   2
Atom  22H    basis set group =>   2
Atom  23H    basis set group =>   2
Atom  24Ru   basis set group =>   3
Atom  25Cl   basis set group =>   4
Atom  26P    basis set group =>   5
Atom  27C    basis set group =>   1
Atom  28H    basis set group =>   2
Atom  29H    basis set group =>   2
Atom  30H    basis set group =>   2
Atom  31C    basis set group =>   1
Atom  32H    basis set group =>   2
Atom  33H    basis set group =>   2
Atom  34H    basis set group =>   2
Atom  35C    basis set group =>   1
Atom  36H    basis set group =>   2
Atom  37H    basis set group =>   2
Atom  38C    basis set group =>   1
Atom  39P    basis set group =>   5
Atom  40H    basis set group =>   2
Atom  41H    basis set group =>   2
Atom  42H    basis set group =>   2
Atom  43C    basis set group =>   1
Atom  44C    basis set group =>   1
Atom  45C    basis set group =>   1
Atom  46H    basis set group =>   2
Atom  47H    basis set group =>   2
Atom  48H    basis set group =>   2
Atom  49H    basis set group =>   2
Atom  50H    basis set group =>   2
-------------------------
ECP PARAMETER INFORMATION
-------------------------

 Group 1, Type Ru ECP Def2-ECP (replacing 28 core electrons, lmax=3)

Atom  24Ru   ECP group =>   1



           ************************************************************
           *        Program running with 24 parallel MPI-processes    *
           *              working on a common directory               *
           ************************************************************
------------------------------------------------------------------------------
                           ORCA GTO INTEGRAL CALCULATION
                           -- RI-GTO INTEGRALS CHOSEN --
------------------------------------------------------------------------------

                         BASIS SET STATISTICS AND STARTUP INFO

Gaussian basis set:
 # of primitive gaussian shells          ...  741
 # of primitive gaussian functions       ... 1707
 # of contracted shells                  ...  490
 # of contracted basis functions         ... 1322
 Highest angular momentum                ...    4
 Maximum contraction depth               ...    7
Auxiliary gaussian basis set:
 # of primitive gaussian shells          ...  960
 # of primitive gaussian functions       ... 2864
 # of contracted shells                  ...  749
 # of contracted aux-basis functions     ... 2397
 Highest angular momentum                ...    6
 Maximum contraction depth               ...    5
Ratio of auxiliary to basis functions    ...  1.81
Integral package used                  ... LIBINT
 One Electron integrals                  
   ECP integrals                         ... done
 Ordering auxiliary basis shells         ... done
 Integral threshhold             Thresh  ...  1.000e-10
 Primitive cut-off               TCut    ...  1.000e-11
 Pre-screening matrix                    ... done
 Shell pair data                         ... 
 Ordering of the shell pairs             ... done (   0.020 sec) 96986 of 120295 pairs
 Determination of significant pairs      ... done (   0.000 sec)
 Creation of shell pair data             ... done (   0.010 sec)
 Storage of shell pair data              ... done (   0.009 sec)
 Shell pair data done in (   0.039 sec)
 Computing two index integrals           ... done
 Cholesky decomposition of the V-matrix  ... done


Timings:
 Total evaluation time                   ...   8.234 sec (  0.137 min)
 One electron matrix time                ...   6.988 sec (  0.116 min) = 84.9%
 Schwartz matrix evaluation time         ...   0.694 sec (  0.012 min) =  8.4%
 Two index repulsion integral time       ...   0.220 sec (  0.004 min) =  2.7%
 Cholesky decomposition of V             ...   0.260 sec (  0.004 min) =  3.2%
 Three index repulsion integral time     ...   0.000 sec (  0.000 min) =  0.0%



           ************************************************************
           *        Program running with 24 parallel MPI-processes    *
           *              working on a common directory               *
           ************************************************************
-------------------------------------------------------------------------------
                                 ORCA SCF
-------------------------------------------------------------------------------

------------
SCF SETTINGS
------------
Hamiltonian:
 Density Functional     Method          .... DFT(GTOs)
 Exchange Functional    Exchange        .... B88
   X-Alpha parameter    XAlpha          ....  0.666667
   Becke's b parameter  XBeta           ....  0.004200
 Correlation Functional Correlation     .... LYP
 LDA part of GGA corr.  LDAOpt          .... VWN-5
 Gradients option       PostSCFGGA      .... off
 Hybrid DFT is turned on
   Fraction HF Exchange ScalHFX         ....  0.710000
   Scaling of DF-GGA-X  ScalDFX         ....  0.290000
   Scaling of DF-GGA-C  ScalDFC         ....  0.540000
   Scaling of DF-LDA-C  ScalLDAC        ....  0.540000
   Perturbative correction              ....  1.000000
   Density functional embedding theory  .... OFF
 RI-approximation to the Coulomb term is turned on
   Number of auxiliary basis functions  .... 2397
   RI-JK (J+K treated both via RI)      .... on


General Settings:
 Integral files         IntName         .... MOR33_pr28
 Hartree-Fock type      HFTyp           .... RHF
 Total Charge           Charge          ....    0
 Multiplicity           Mult            ....    1
 Number of Electrons    NEL             ....  190
 Basis Dimension        Dim             .... 1322
 Nuclear Repulsion      ENuc            ....   2632.2381876203 Eh

Convergence Acceleration:
 DIIS                   CNVDIIS         .... on
   Start iteration      DIISMaxIt       ....    12
   Startup error        DIISStart       ....  0.200000
   # of expansion vecs  DIISMaxEq       ....     5
   Bias factor          DIISBfac        ....   1.050
   Max. coefficient     DIISMaxC        ....  10.000
 Newton-Raphson         CNVNR           .... off
 SOSCF                  CNVSOSCF        .... off
 Level Shifting         CNVShift        .... on
   Level shift para.    LevelShift      ....    0.2500
   Turn off err/grad.   ShiftErr        ....    0.0010
 Zerner damping         CNVZerner       .... off
 Static damping         CNVDamp         .... on
   Fraction old density DampFac         ....    0.7000
   Max. Damping (<1)    DampMax         ....    0.9800
   Min. Damping (>=0)   DampMin         ....    0.0000
   Turn off err/grad.   DampErr         ....    0.1000
 Fernandez-Rico         CNVRico         .... off

SCF Procedure:
 Maximum # iterations   MaxIter         ....   125
 SCF integral mode      SCFMode         .... Direct
   Integral package                     .... LIBINT
 Reset frequency        DirectResetFreq ....    20
 Integral Threshold     Thresh          ....  1.000e-10 Eh
 Primitive CutOff       TCut            ....  1.000e-11 Eh

Convergence Tolerance:
 Convergence Check Mode ConvCheckMode   .... Total+1el-Energy
 Convergence forced     ConvForced      .... 0
 Energy Change          TolE            ....  1.000e-06 Eh
 1-El. energy change                    ....  1.000e-03 Eh
 DIIS Error             TolErr          ....  1.000e-06


Diagonalization of the overlap matrix:
Smallest eigenvalue                        ... 1.665e-07
Time for diagonalization                   ...    0.248 sec
Threshold for overlap eigenvalues          ... 1.000e-08
Number of eigenvalues below threshold      ... 0
Time for construction of square roots      ...    0.219 sec
Total time needed                          ...    0.474 sec

-------------------
DFT GRID GENERATION
-------------------

General Integration Accuracy     IntAcc      ...  4.670
Radial Grid Type                 RadialGrid  ... Gauss-Chebyshev
Angular Grid (max. acc.)         AngularGrid ... Lebedev-302
Angular grid pruning method      GridPruning ... 3 (G Style)
Weight generation scheme         WeightScheme... Becke
Basis function cutoff            BFCut       ...    1.0000e-10
Integration weight cutoff        WCut        ...    1.0000e-14
Grids for H and He will be reduced by one unit

# of grid points (after initial pruning)     ... 235550 (   0.0 sec)
# of grid points (after weights+screening)   ... 198938 (   0.4 sec)
nearest neighbour list constructed           ...    0.0 sec
Grid point re-assignment to atoms done       ...    0.0 sec
Grid point division into batches done        ...    0.6 sec
Reduced shell lists constructed in    1.7 sec

Total number of grid points                  ...   198938
Total number of batches                      ...     3133
Average number of points per batch           ...       63
Average number of grid points per atom       ...     3901
Average number of shells per batch           ...   291.39 (59.47%)
Average number of basis functions per batch  ...   781.57 (59.12%)
Average number of large shells per batch     ...   217.43 (74.62%)
Average number of large basis fcns per batch ...   586.87 (75.09%)
Average number of aux-shells per batch       ...   291.39 (38.90%)
Average number of aux functions per batch    ...   781.57 (32.61%)
Maximum spatial batch extension              ...   5.52,  3.39,  3.31 au
Average spatial batch extension              ...   0.05,  0.05,  0.05 au

Time for grid setup =    2.165 sec

------------------------------
INITIAL GUESS: MODEL POTENTIAL
------------------------------
Loading Hartree-Fock densities                     ... done
  calling /sw/apps/orca/orca_4_2_0_linux_x86-64_openmpi314/orca MOR33_pr28_atom44.inp > MOR33_pr28_atom44.out in order to generate an atomic fitting density for atom 24 (Ru with ECP) on-the-fly... 
    atom 24 (Ru), assumed electronic state with S=5: 1s2 2s2 2p6 3s2 3p6 4s2 3d10 4p6 5s2 4d6           ... done
Calculating cut-offs                               ... done
Setting up the integral package                    ... done
Initializing the effective Hamiltonian             ... done
Starting the Coulomb interaction                   ... done (   0.3 sec)
Reading the grid                                   ... done
Mapping shells                                     ... done
Starting the XC term evaluation                    ... done (   1.2 sec)
  promolecular density results
     # of electrons  =    217.983829442
     EX              =   -293.792155315
     EC              =     -1.113571009
     EX+EC           =   -294.905726323
Transforming the Hamiltonian                       ... done (   0.1 sec)
Diagonalizing the Hamiltonian                      ... done (   0.2 sec)
Back transforming the eigenvectors                 ... done (   0.1 sec)
Now organizing SCF variables                       ... done
                      ------------------
                      INITIAL GUESS DONE (   5.3 sec)
                      ------------------
--------------
SCF ITERATIONS
--------------
ITER       Energy         Delta-E        Max-DP      RMS-DP      [F,P]     Damp
  0  -1862.0930043964   0.000000000000 1.40440704  0.00356182  0.3871971 0.7000
  1  -1861.9437549746   0.149249421791 0.96056067  0.00291916  0.2995675 0.7000
  2  -1862.1073730725  -0.163618097905 0.63355271  0.00203824  0.2195989 0.7000
                               ***Turning on DIIS***
  3  -1862.3807873704  -0.273414297963 0.50614956  0.00156330  0.1530039 0.7000
  4  -1862.6448142054  -0.264026834986 0.35476500  0.00125990  0.1010093 0.7000
  5  -1862.8285716312  -0.183757425804 0.56652132  0.00231430  0.0650877 0.0000
  6  -1862.9868035014  -0.158231870163 0.21998672  0.00075510  0.0211898 0.0000
  7  -1862.9882752921  -0.001471790689 0.11697756  0.00040152  0.0099180 0.0000
  8  -1862.9892475178  -0.000972225716 0.21228051  0.00065514  0.0045403 0.0000
  9  -1862.9896997669  -0.000452249074 0.23535968  0.00064615  0.0031414 0.0000
 10  -1862.9898306656  -0.000130898735 0.35098356  0.00099557  0.0016005 0.0000
 11  -1862.9898568038  -0.000026138227 0.56316135  0.00169916  0.0007222 0.0000
 12  -1862.9898681200  -0.000011316129 0.24397123  0.00070388  0.0004477 0.0000
 13  -1862.9898709786  -0.000002858589 0.16172560  0.00059066  0.0003623 0.0000
 14  -1862.9898721807  -0.000001202186 0.23220811  0.00060436  0.0001363 0.0000
                 **** Energy Check signals convergence ****

               *****************************************************
               *                     SUCCESS                       *
               *           SCF CONVERGED AFTER  15 CYCLES          *
               *****************************************************


----------------
TOTAL SCF ENERGY
----------------

Total Energy       :        -1862.98987241 Eh          -50694.53169 eV

Components:
Nuclear Repulsion  :         2632.23818762 Eh           71626.84252 eV
Electronic Energy  :        -4495.22806003 Eh         -122321.37421 eV
One Electron Energy:        -7837.34268831 Eh         -213264.93673 eV
Two Electron Energy:         3342.11462828 Eh           90943.56252 eV

Virial components:
Potential Energy   :        -3662.42262548 Eh          -99659.58623 eV
Kinetic Energy     :         1799.43275307 Eh           48965.05455 eV
Virial Ratio       :            2.03532064


DFT components:
N(Alpha)           :       94.999725038180 electrons
N(Beta)            :       94.999725038180 electrons
N(Total)           :      189.999450076359 electrons
E(X)               :      -51.225245295975 Eh       
E(C)               :       -3.602150915309 Eh       
E(XC)              :      -54.827396211284 Eh       
DFET-embed. en.    :        0.000000000000 Eh       

---------------
SCF CONVERGENCE
---------------

  Last Energy change         ...   -2.2972e-07  Tolerance :   1.0000e-06
  Last MAX-Density change    ...    2.2723e-01  Tolerance :   1.0000e-05
  Last RMS-Density change    ...    4.4037e-04  Tolerance :   1.0000e-06
  Last DIIS Error            ...    7.9929e-05  Tolerance :   1.0000e-06

             **** THE GBW FILE WAS UPDATED (MOR33_pr28.gbw) ****
             **** DENSITY FILE WAS UPDATED (MOR33_pr28.scfp) ****
             **** ENERGY FILE WAS UPDATED (MOR33_pr28.en.tmp) ****
             **** THE GBW FILE WAS UPDATED (MOR33_pr28.gbw) ****
             **** DENSITY FILE WAS UPDATED (MOR33_pr28.scfp) ****
----------------
ORBITAL ENERGIES
----------------

  NO   OCC          E(Eh)            E(eV) 
   0   2.0000    -103.534656     -2817.3212 
   1   2.0000     -78.922080     -2147.5790 
   2   2.0000     -78.920636     -2147.5397 
   3   2.0000     -10.866255      -295.6858 
   4   2.0000     -10.861638      -295.5602 
   5   2.0000     -10.858864      -295.4847 
   6   2.0000     -10.854850      -295.3755 
   7   2.0000     -10.853411      -295.3363 
   8   2.0000     -10.852496      -295.3114 
   9   2.0000     -10.852294      -295.3059 
  10   2.0000     -10.850966      -295.2698 
  11   2.0000     -10.850905      -295.2681 
  12   2.0000     -10.848646      -295.2067 
  13   2.0000     -10.848550      -295.2040 
  14   2.0000     -10.847069      -295.1638 
  15   2.0000     -10.841113      -295.0017 
  16   2.0000     -10.837955      -294.9157 
  17   2.0000     -10.832411      -294.7649 
  18   2.0000     -10.829647      -294.6897 
  19   2.0000     -10.051109      -273.5046 
  20   2.0000      -7.623534      -207.4469 
  21   2.0000      -7.622025      -207.4058 
  22   2.0000      -7.621954      -207.4039 
  23   2.0000      -7.157274      -194.7593 
  24   2.0000      -7.156220      -194.7306 
  25   2.0000      -5.149343      -140.1208 
  26   2.0000      -5.148991      -140.1112 
  27   2.0000      -5.148211      -140.0900 
  28   2.0000      -5.147973      -140.0835 
  29   2.0000      -5.147200      -140.0624 
  30   2.0000      -5.146130      -140.0333 
  31   2.0000      -3.322521       -90.4104 
  32   2.0000      -2.083206       -56.6869 
  33   2.0000      -2.063229       -56.1433 
  34   2.0000      -2.060742       -56.0756 
  35   2.0000      -1.070988       -29.1431 
  36   2.0000      -0.973750       -26.4971 
  37   2.0000      -0.950936       -25.8763 
  38   2.0000      -0.943458       -25.6728 
  39   2.0000      -0.924365       -25.1533 
  40   2.0000      -0.893313       -24.3083 
  41   2.0000      -0.883263       -24.0348 
  42   2.0000      -0.876020       -23.8377 
  43   2.0000      -0.872620       -23.7452 
  44   2.0000      -0.864396       -23.5214 
  45   2.0000      -0.854374       -23.2487 
  46   2.0000      -0.851366       -23.1668 
  47   2.0000      -0.779117       -21.2009 
  48   2.0000      -0.768121       -20.9016 
  49   2.0000      -0.759505       -20.6672 
  50   2.0000      -0.688021       -18.7220 
  51   2.0000      -0.644839       -17.5470 
  52   2.0000      -0.631991       -17.1973 
  53   2.0000      -0.630524       -17.1574 
  54   2.0000      -0.574578       -15.6351 
  55   2.0000      -0.570086       -15.5128 
  56   2.0000      -0.560478       -15.2514 
  57   2.0000      -0.554364       -15.0850 
  58   2.0000      -0.541557       -14.7365 
  59   2.0000      -0.534594       -14.5470 
  60   2.0000      -0.533848       -14.5267 
  61   2.0000      -0.530927       -14.4473 
  62   2.0000      -0.528387       -14.3781 
  63   2.0000      -0.522416       -14.2157 
  64   2.0000      -0.516235       -14.0475 
  65   2.0000      -0.513125       -13.9629 
  66   2.0000      -0.512054       -13.9337 
  67   2.0000      -0.505939       -13.7673 
  68   2.0000      -0.505020       -13.7423 
  69   2.0000      -0.500295       -13.6137 
  70   2.0000      -0.497098       -13.5267 
  71   2.0000      -0.492091       -13.3905 
  72   2.0000      -0.488297       -13.2872 
  73   2.0000      -0.487611       -13.2686 
  74   2.0000      -0.472789       -12.8652 
  75   2.0000      -0.468553       -12.7500 
  76   2.0000      -0.466319       -12.6892 
  77   2.0000      -0.463897       -12.6233 
  78   2.0000      -0.434200       -11.8152 
  79   2.0000      -0.426784       -11.6134 
  80   2.0000      -0.425558       -11.5800 
  81   2.0000      -0.420929       -11.4540 
  82   2.0000      -0.417755       -11.3677 
  83   2.0000      -0.411202       -11.1894 
  84   2.0000      -0.396316       -10.7843 
  85   2.0000      -0.370320       -10.0769 
  86   2.0000      -0.366398        -9.9702 
  87   2.0000      -0.359219        -9.7748 
  88   2.0000      -0.343041        -9.3346 
  89   2.0000      -0.340848        -9.2749 
  90   2.0000      -0.307966        -8.3802 
  91   2.0000      -0.300100        -8.1661 
  92   2.0000      -0.282128        -7.6771 
  93   2.0000      -0.256201        -6.9716 
  94   2.0000      -0.243275        -6.6199 
  95   0.0000       0.033800         0.9197 
  96   0.0000       0.043147         1.1741 
  97   0.0000       0.049048         1.3347 
  98   0.0000       0.052084         1.4173 
  99   0.0000       0.063509         1.7282 
 100   0.0000       0.066984         1.8227 
 101   0.0000       0.068716         1.8699 
 102   0.0000       0.069942         1.9032 
 103   0.0000       0.072518         1.9733 
 104   0.0000       0.087658         2.3853 
 105   0.0000       0.089345         2.4312 
 106   0.0000       0.091511         2.4901 
 107   0.0000       0.094431         2.5696 
 108   0.0000       0.096471         2.6251 
 109   0.0000       0.100849         2.7442 
 110   0.0000       0.106647         2.9020 
 111   0.0000       0.108325         2.9477 
 112   0.0000       0.114214         3.1079 
 113   0.0000       0.118578         3.2267 
 114   0.0000       0.119847         3.2612 
 115   0.0000       0.124299         3.3823 
 116   0.0000       0.127132         3.4594 
 117   0.0000       0.127486         3.4691 
 118   0.0000       0.130352         3.5471 
 119   0.0000       0.136145         3.7047 
 120   0.0000       0.138373         3.7653 
 121   0.0000       0.141573         3.8524 
 122   0.0000       0.144758         3.9391 
 123   0.0000       0.147782         4.0214 
 124   0.0000       0.149157         4.0588 
 125   0.0000       0.152426         4.1477 
 126   0.0000       0.154385         4.2010 
 127   0.0000       0.160980         4.3805 
 128   0.0000       0.167511         4.5582 
 129   0.0000       0.168222         4.5775 
 130   0.0000       0.169816         4.6209 
 131   0.0000       0.174189         4.7399 
 132   0.0000       0.174854         4.7580 
 133   0.0000       0.176871         4.8129 
 134   0.0000       0.183612         4.9963 
 135   0.0000       0.185118         5.0373 
 136   0.0000       0.188239         5.1223 
 137   0.0000       0.193911         5.2766 
 138   0.0000       0.199809         5.4371 
 139   0.0000       0.201723         5.4892 
 140   0.0000       0.203054         5.5254 
 141   0.0000       0.204543         5.5659 
 142   0.0000       0.208715         5.6794 
 143   0.0000       0.210250         5.7212 
 144   0.0000       0.216927         5.9029 
 145   0.0000       0.219163         5.9637 
 146   0.0000       0.222163         6.0454 
 147   0.0000       0.225585         6.1385 
 148   0.0000       0.229384         6.2419 
 149   0.0000       0.229783         6.2527 
 150   0.0000       0.232503         6.3267 
 151   0.0000       0.239765         6.5243 
 152   0.0000       0.241016         6.5584 
 153   0.0000       0.245296         6.6748 
 154   0.0000       0.247349         6.7307 
 155   0.0000       0.248239         6.7549 
 156   0.0000       0.250200         6.8083 
 157   0.0000       0.254779         6.9329 
 158   0.0000       0.257803         7.0152 
 159   0.0000       0.262206         7.1350 
 160   0.0000       0.264289         7.1917 
 161   0.0000       0.268843         7.3156 
 162   0.0000       0.269181         7.3248 
 163   0.0000       0.271699         7.3933 
 164   0.0000       0.274623         7.4729 
 165   0.0000       0.276192         7.5156 
 166   0.0000       0.278927         7.5900 
 167   0.0000       0.280273         7.6266 
 168   0.0000       0.281810         7.6684 
 169   0.0000       0.283824         7.7232 
 170   0.0000       0.288519         7.8510 
 171   0.0000       0.291020         7.9191 
 172   0.0000       0.294166         8.0047 
 173   0.0000       0.298290         8.1169 
 174   0.0000       0.299606         8.1527 
 175   0.0000       0.302062         8.2195 
 176   0.0000       0.304968         8.2986 
 177   0.0000       0.305801         8.3213 
 178   0.0000       0.309264         8.4155 
 179   0.0000       0.311674         8.4811 
 180   0.0000       0.312993         8.5170 
 181   0.0000       0.314315         8.5529 
 182   0.0000       0.317516         8.6400 
 183   0.0000       0.319685         8.6991 
 184   0.0000       0.322028         8.7628 
 185   0.0000       0.323858         8.8126 
 186   0.0000       0.325755         8.8643 
 187   0.0000       0.328742         8.9455 
 188   0.0000       0.330699         8.9988 
 189   0.0000       0.332367         9.0442 
 190   0.0000       0.332792         9.0557 
 191   0.0000       0.334170         9.0932 
 192   0.0000       0.337792         9.1918 
 193   0.0000       0.340896         9.2763 
 194   0.0000       0.343728         9.3533 
 195   0.0000       0.345704         9.4071 
 196   0.0000       0.347631         9.4595 
 197   0.0000       0.351079         9.5534 
 198   0.0000       0.352742         9.5986 
 199   0.0000       0.354124         9.6362 
 200   0.0000       0.357942         9.7401 
 201   0.0000       0.358555         9.7568 
 202   0.0000       0.361236         9.8297 
 203   0.0000       0.362612         9.8672 
 204   0.0000       0.366022         9.9600 
 205   0.0000       0.367395         9.9973 
 206   0.0000       0.368044        10.0150 
 207   0.0000       0.369780        10.0622 
 208   0.0000       0.373744        10.1701 
 209   0.0000       0.378366        10.2959 
 210   0.0000       0.379584        10.3290 
 211   0.0000       0.382705        10.4139 
 212   0.0000       0.384396        10.4599 
 213   0.0000       0.388265        10.5652 
 214   0.0000       0.390847        10.6355 
 215   0.0000       0.393549        10.7090 
 216   0.0000       0.397504        10.8166 
 217   0.0000       0.399934        10.8828 
 218   0.0000       0.401869        10.9354 
 219   0.0000       0.403638        10.9835 
 220   0.0000       0.403981        10.9929 
 221   0.0000       0.406519        11.0619 
 222   0.0000       0.408604        11.1187 
 223   0.0000       0.409803        11.1513 
 224   0.0000       0.414121        11.2688 
 225   0.0000       0.416378        11.3302 
 226   0.0000       0.420557        11.4440 
 227   0.0000       0.423193        11.5157 
 228   0.0000       0.423719        11.5300 
 229   0.0000       0.425621        11.5817 
 230   0.0000       0.429254        11.6806 
 231   0.0000       0.430143        11.7048 
 232   0.0000       0.431232        11.7344 
 233   0.0000       0.433451        11.7948 
 234   0.0000       0.434621        11.8266 
 235   0.0000       0.442430        12.0391 
 236   0.0000       0.447688        12.1822 
 237   0.0000       0.448408        12.2018 
 238   0.0000       0.448868        12.2143 
 239   0.0000       0.452110        12.3025 
 240   0.0000       0.454857        12.3773 
 241   0.0000       0.456637        12.4257 
 242   0.0000       0.459944        12.5157 
 243   0.0000       0.460598        12.5335 
 244   0.0000       0.464706        12.6453 
 245   0.0000       0.467145        12.7117 
 246   0.0000       0.470238        12.7958 
 247   0.0000       0.473130        12.8745 
 248   0.0000       0.475083        12.9277 
 249   0.0000       0.478298        13.0151 
 250   0.0000       0.478620        13.0239 
 251   0.0000       0.480457        13.0739 
 252   0.0000       0.486949        13.2506 
 253   0.0000       0.488906        13.3038 
 254   0.0000       0.491317        13.3694 
 255   0.0000       0.492246        13.3947 
 256   0.0000       0.493572        13.4308 
 257   0.0000       0.495574        13.4852 
 258   0.0000       0.498829        13.5738 
 259   0.0000       0.500284        13.6134 
 260   0.0000       0.505347        13.7512 
 261   0.0000       0.506479        13.7820 
 262   0.0000       0.509097        13.8532 
 263   0.0000       0.512828        13.9548 
 264   0.0000       0.515021        14.0144 
 265   0.0000       0.515864        14.0374 
 266   0.0000       0.519470        14.1355 
 267   0.0000       0.521648        14.1948 
 268   0.0000       0.524865        14.2823 
 269   0.0000       0.527397        14.3512 
 270   0.0000       0.530373        14.4322 
 271   0.0000       0.531526        14.4635 
 272   0.0000       0.534012        14.5312 
 273   0.0000       0.538092        14.6422 
 274   0.0000       0.538362        14.6496 
 275   0.0000       0.540227        14.7003 
 276   0.0000       0.543675        14.7941 
 277   0.0000       0.545328        14.8391 
 278   0.0000       0.548842        14.9348 
 279   0.0000       0.550382        14.9767 
 280   0.0000       0.555940        15.1279 
 281   0.0000       0.558455        15.1963 
 282   0.0000       0.560089        15.2408 
 283   0.0000       0.562319        15.3015 
 284   0.0000       0.564141        15.3510 
 285   0.0000       0.566669        15.4199 
 286   0.0000       0.568407        15.4671 
 287   0.0000       0.576973        15.7002 
 288   0.0000       0.578292        15.7361 
 289   0.0000       0.581720        15.8294 
 290   0.0000       0.585012        15.9190 
 291   0.0000       0.585763        15.9394 
 292   0.0000       0.589662        16.0455 
 293   0.0000       0.593799        16.1581 
 294   0.0000       0.594468        16.1763 
 295   0.0000       0.596344        16.2273 
 296   0.0000       0.599295        16.3076 
 297   0.0000       0.601599        16.3703 
 298   0.0000       0.605228        16.4691 
 299   0.0000       0.608299        16.5527 
 300   0.0000       0.610948        16.6247 
 301   0.0000       0.614527        16.7221 
 302   0.0000       0.617008        16.7896 
 303   0.0000       0.619061        16.8455 
 304   0.0000       0.625378        17.0174 
 305   0.0000       0.627385        17.0720 
 306   0.0000       0.630525        17.1575 
 307   0.0000       0.632314        17.2062 
 308   0.0000       0.635746        17.2995 
 309   0.0000       0.638072        17.3628 
 310   0.0000       0.640765        17.4361 
 311   0.0000       0.644045        17.5254 
 312   0.0000       0.646654        17.5963 
 313   0.0000       0.651725        17.7343 
 314   0.0000       0.651880        17.7386 
 315   0.0000       0.653730        17.7889 
 316   0.0000       0.657772        17.8989 
 317   0.0000       0.661608        18.0033 
 318   0.0000       0.665775        18.1167 
 319   0.0000       0.669333        18.2135 
 320   0.0000       0.671705        18.2780 
 321   0.0000       0.673821        18.3356 
 322   0.0000       0.677567        18.4375 
 323   0.0000       0.678976        18.4759 
 324   0.0000       0.681009        18.5312 
 325   0.0000       0.683251        18.5922 
 326   0.0000       0.687068        18.6961 
 327   0.0000       0.689307        18.7570 
 328   0.0000       0.692971        18.8567 
 329   0.0000       0.694588        18.9007 
 330   0.0000       0.696945        18.9648 
 331   0.0000       0.700631        19.0651 
 332   0.0000       0.702873        19.1262 
 333   0.0000       0.707326        19.2473 
 334   0.0000       0.708745        19.2859 
 335   0.0000       0.710933        19.3455 
 336   0.0000       0.712028        19.3753 
 337   0.0000       0.715095        19.4587 
 338   0.0000       0.716063        19.4851 
 339   0.0000       0.720519        19.6063 
 340   0.0000       0.725695        19.7472 
 341   0.0000       0.727792        19.8042 
 342   0.0000       0.729882        19.8611 
 343   0.0000       0.732848        19.9418 
 344   0.0000       0.733585        19.9619 
 345   0.0000       0.736769        20.0485 
 346   0.0000       0.737940        20.0804 
 347   0.0000       0.741020        20.1642 
 348   0.0000       0.744246        20.2520 
 349   0.0000       0.746632        20.3169 
 350   0.0000       0.748736        20.3742 
 351   0.0000       0.753492        20.5036 
 352   0.0000       0.755014        20.5450 
 353   0.0000       0.756113        20.5749 
 354   0.0000       0.757726        20.6188 
 355   0.0000       0.760616        20.6974 
 356   0.0000       0.761901        20.7324 
 357   0.0000       0.764212        20.7953 
 358   0.0000       0.765135        20.8204 
 359   0.0000       0.766510        20.8578 
 360   0.0000       0.767293        20.8791 
 361   0.0000       0.771693        20.9988 
 362   0.0000       0.773782        21.0557 
 363   0.0000       0.777511        21.1572 
 364   0.0000       0.779107        21.2006 
 365   0.0000       0.782534        21.2938 
 366   0.0000       0.786071        21.3901 
 367   0.0000       0.788248        21.4493 
 368   0.0000       0.790124        21.5004 
 369   0.0000       0.791693        21.5431 
 370   0.0000       0.794082        21.6081 
 371   0.0000       0.795198        21.6384 
 372   0.0000       0.798224        21.7208 
 373   0.0000       0.802133        21.8272 
 374   0.0000       0.805645        21.9227 
 375   0.0000       0.807034        21.9605 
 376   0.0000       0.810321        22.0500 
 377   0.0000       0.811442        22.0805 
 378   0.0000       0.815659        22.1952 
 379   0.0000       0.816869        22.2281 
 380   0.0000       0.820263        22.3205 
 381   0.0000       0.822543        22.3825 
 382   0.0000       0.826442        22.4886 
 383   0.0000       0.828609        22.5476 
 384   0.0000       0.832183        22.6448 
 385   0.0000       0.836233        22.7551 
 386   0.0000       0.837811        22.7980 
 387   0.0000       0.840017        22.8580 
 388   0.0000       0.842815        22.9342 
 389   0.0000       0.843870        22.9629 
 390   0.0000       0.845750        23.0140 
 391   0.0000       0.848932        23.1006 
 392   0.0000       0.849588        23.1185 
 393   0.0000       0.852893        23.2084 
 394   0.0000       0.858523        23.3616 
 395   0.0000       0.860172        23.4065 
 396   0.0000       0.860983        23.4285 
 397   0.0000       0.865171        23.5425 
 398   0.0000       0.868882        23.6435 
 399   0.0000       0.869721        23.6663 
 400   0.0000       0.871907        23.7258 
 401   0.0000       0.877734        23.8844 
 402   0.0000       0.881375        23.9834 
 403   0.0000       0.882288        24.0083 
 404   0.0000       0.886966        24.1356 
 405   0.0000       0.889198        24.1963 
 406   0.0000       0.893482        24.3129 
 407   0.0000       0.896205        24.3870 
 408   0.0000       0.896662        24.3994 
 409   0.0000       0.900216        24.4961 
 410   0.0000       0.904519        24.6132 
 411   0.0000       0.906500        24.6671 
 412   0.0000       0.910040        24.7634 
 413   0.0000       0.913038        24.8450 
 414   0.0000       0.914981        24.8979 
 415   0.0000       0.919790        25.0288 
 416   0.0000       0.920667        25.0526 
 417   0.0000       0.923036        25.1171 
 418   0.0000       0.926266        25.2050 
 419   0.0000       0.929070        25.2813 
 420   0.0000       0.935055        25.4441 
 421   0.0000       0.937487        25.5103 
 422   0.0000       0.939284        25.5592 
 423   0.0000       0.943170        25.6650 
 424   0.0000       0.945310        25.7232 
 425   0.0000       0.946493        25.7554 
 426   0.0000       0.949487        25.8369 
 427   0.0000       0.953722        25.9521 
 428   0.0000       0.956542        26.0288 
 429   0.0000       0.959699        26.1147 
 430   0.0000       0.963332        26.2136 
 431   0.0000       0.964568        26.2472 
 432   0.0000       0.967456        26.3258 
 433   0.0000       0.973560        26.4919 
 434   0.0000       0.979532        26.6544 
 435   0.0000       0.981499        26.7080 
 436   0.0000       0.986589        26.8465 
 437   0.0000       0.988547        26.8997 
 438   0.0000       0.990019        26.9398 
 439   0.0000       0.994323        27.0569 
 440   0.0000       0.996908        27.1273 
 441   0.0000       0.998244        27.1636 
 442   0.0000       1.005452        27.3597 
 443   0.0000       1.009155        27.4605 
 444   0.0000       1.015846        27.6426 
 445   0.0000       1.018556        27.7163 
 446   0.0000       1.025118        27.8949 
 447   0.0000       1.028215        27.9791 
 448   0.0000       1.031901        28.0794 
 449   0.0000       1.037915        28.2431 
 450   0.0000       1.039397        28.2834 
 451   0.0000       1.039758        28.2932 
 452   0.0000       1.045506        28.4497 
 453   0.0000       1.049018        28.5452 
 454   0.0000       1.054296        28.6888 
 455   0.0000       1.058159        28.7940 
 456   0.0000       1.065674        28.9985 
 457   0.0000       1.068874        29.0855 
 458   0.0000       1.073887        29.2220 
 459   0.0000       1.080739        29.4084 
 460   0.0000       1.082848        29.4658 
 461   0.0000       1.091411        29.6988 
 462   0.0000       1.096251        29.8305 
 463   0.0000       1.098836        29.9008 
 464   0.0000       1.101236        29.9661 
 465   0.0000       1.105791        30.0901 
 466   0.0000       1.111309        30.2403 
 467   0.0000       1.114435        30.3253 
 468   0.0000       1.117128        30.3986 
 469   0.0000       1.120636        30.4940 
 470   0.0000       1.128530        30.7089 
 471   0.0000       1.130736        30.7689 
 472   0.0000       1.139498        31.0073 
 473   0.0000       1.140455        31.0334 
 474   0.0000       1.147028        31.2122 
 475   0.0000       1.152961        31.3737 
 476   0.0000       1.154812        31.4240 
 477   0.0000       1.158608        31.5273 
 478   0.0000       1.163424        31.6584 
 479   0.0000       1.166059        31.7301 
 480   0.0000       1.173266        31.9262 
 481   0.0000       1.182536        32.1784 
 482   0.0000       1.184613        32.2350 
 483   0.0000       1.190849        32.4046 
 484   0.0000       1.196074        32.5468 
 485   0.0000       1.197060        32.5736 
 486   0.0000       1.206020        32.8175 
 487   0.0000       1.206565        32.8323 
 488   0.0000       1.212921        33.0053 
 489   0.0000       1.218531        33.1579 
 490   0.0000       1.220312        33.2064 
 491   0.0000       1.232202        33.5299 
 492   0.0000       1.234312        33.5873 
 493   0.0000       1.239250        33.7217 
 494   0.0000       1.244763        33.8717 
 495   0.0000       1.248980        33.9865 
 496   0.0000       1.251841        34.0643 
 497   0.0000       1.256337        34.1867 
 498   0.0000       1.262491        34.3541 
 499   0.0000       1.267067        34.4787 
 500   0.0000       1.269661        34.5492 
 501   0.0000       1.273587        34.6561 
 502   0.0000       1.285061        34.9683 
 503   0.0000       1.288862        35.0717 
 504   0.0000       1.293669        35.2025 
 505   0.0000       1.298015        35.3208 
 506   0.0000       1.300743        35.3950 
 507   0.0000       1.301613        35.4187 
 508   0.0000       1.311047        35.6754 
 509   0.0000       1.313625        35.7456 
 510   0.0000       1.317501        35.8510 
 511   0.0000       1.320567        35.9345 
 512   0.0000       1.329302        36.1721 
 513   0.0000       1.334611        36.3166 
 514   0.0000       1.339557        36.4512 
 515   0.0000       1.348989        36.7079 
 516   0.0000       1.352255        36.7967 
 517   0.0000       1.355901        36.8959 
 518   0.0000       1.361152        37.0388 
 519   0.0000       1.363884        37.1132 
 520   0.0000       1.368631        37.2423 
 521   0.0000       1.382620        37.6230 
 522   0.0000       1.386035        37.7159 
 523   0.0000       1.388297        37.7775 
 524   0.0000       1.396128        37.9906 
 525   0.0000       1.398663        38.0596 
 526   0.0000       1.399351        38.0783 
 527   0.0000       1.400690        38.1147 
 528   0.0000       1.407336        38.2956 
 529   0.0000       1.410999        38.3952 
 530   0.0000       1.415981        38.5308 
 531   0.0000       1.423598        38.7381 
 532   0.0000       1.427215        38.8365 
 533   0.0000       1.433047        38.9952 
 534   0.0000       1.435296        39.0564 
 535   0.0000       1.439864        39.1807 
 536   0.0000       1.444598        39.3095 
 537   0.0000       1.447618        39.3917 
 538   0.0000       1.453303        39.5464 
 539   0.0000       1.455323        39.6014 
 540   0.0000       1.457009        39.6472 
 541   0.0000       1.464342        39.8468 
 542   0.0000       1.466329        39.9008 
 543   0.0000       1.474775        40.1307 
 544   0.0000       1.478603        40.2348 
 545   0.0000       1.482071        40.3292 
 546   0.0000       1.486284        40.4438 
 547   0.0000       1.494443        40.6659 
 548   0.0000       1.496289        40.7161 
 549   0.0000       1.502232        40.8778 
 550   0.0000       1.505523        40.9674 
 551   0.0000       1.511017        41.1169 
 552   0.0000       1.511441        41.1284 
 553   0.0000       1.514726        41.2178 
 554   0.0000       1.519234        41.3405 
 555   0.0000       1.520905        41.3859 
 556   0.0000       1.523408        41.4540 
 557   0.0000       1.528322        41.5878 
 558   0.0000       1.531511        41.6745 
 559   0.0000       1.534762        41.7630 
 560   0.0000       1.538024        41.8517 
 561   0.0000       1.541272        41.9402 
 562   0.0000       1.544704        42.0335 
 563   0.0000       1.551994        42.2319 
 564   0.0000       1.552595        42.2483 
 565   0.0000       1.557493        42.3815 
 566   0.0000       1.560428        42.4614 
 567   0.0000       1.566738        42.6331 
 568   0.0000       1.573459        42.8160 
 569   0.0000       1.577859        42.9357 
 570   0.0000       1.580015        42.9944 
 571   0.0000       1.582363        43.0583 
 572   0.0000       1.587144        43.1884 
 573   0.0000       1.591018        43.2938 
 574   0.0000       1.595881        43.4261 
 575   0.0000       1.599908        43.5357 
 576   0.0000       1.602186        43.5977 
 577   0.0000       1.608499        43.7695 
 578   0.0000       1.611214        43.8433 
 579   0.0000       1.612449        43.8770 
 580   0.0000       1.619539        44.0699 
 581   0.0000       1.620769        44.1034 
 582   0.0000       1.624923        44.2164 
 583   0.0000       1.634769        44.4843 
 584   0.0000       1.638728        44.5921 
 585   0.0000       1.640214        44.6325 
 586   0.0000       1.642832        44.7037 
 587   0.0000       1.650628        44.9159 
 588   0.0000       1.653588        44.9964 
 589   0.0000       1.655066        45.0366 
 590   0.0000       1.659203        45.1492 
 591   0.0000       1.663598        45.2688 
 592   0.0000       1.669765        45.4366 
 593   0.0000       1.675313        45.5876 
 594   0.0000       1.678076        45.6628 
 595   0.0000       1.683220        45.8027 
 596   0.0000       1.689222        45.9661 
 597   0.0000       1.690230        45.9935 
 598   0.0000       1.696231        46.1568 
 599   0.0000       1.701897        46.3110 
 600   0.0000       1.706236        46.4291 
 601   0.0000       1.711941        46.5843 
 602   0.0000       1.720481        46.8167 
 603   0.0000       1.724420        46.9239 
 604   0.0000       1.731197        47.1083 
 605   0.0000       1.734302        47.1928 
 606   0.0000       1.738171        47.2980 
 607   0.0000       1.744178        47.4615 
 608   0.0000       1.749498        47.6063 
 609   0.0000       1.752798        47.6961 
 610   0.0000       1.757068        47.8123 
 611   0.0000       1.760745        47.9123 
 612   0.0000       1.766446        48.0674 
 613   0.0000       1.770391        48.1748 
 614   0.0000       1.771815        48.2135 
 615   0.0000       1.782983        48.5174 
 616   0.0000       1.787926        48.6519 
 617   0.0000       1.791498        48.7491 
 618   0.0000       1.792048        48.7641 
 619   0.0000       1.803946        49.0879 
 620   0.0000       1.805113        49.1196 
 621   0.0000       1.812442        49.3190 
 622   0.0000       1.821762        49.5727 
 623   0.0000       1.824740        49.6537 
 624   0.0000       1.834232        49.9120 
 625   0.0000       1.837113        49.9904 
 626   0.0000       1.841165        50.1007 
 627   0.0000       1.843239        50.1571 
 628   0.0000       1.845695        50.2239 
 629   0.0000       1.847720        50.2790 
 630   0.0000       1.856562        50.5196 
 631   0.0000       1.860326        50.6220 
 632   0.0000       1.866958        50.8025 
 633   0.0000       1.869155        50.8623 
 634   0.0000       1.872505        50.9535 
 635   0.0000       1.875790        51.0428 
 636   0.0000       1.884594        51.2824 
 637   0.0000       1.891170        51.4613 
 638   0.0000       1.894762        51.5591 
 639   0.0000       1.899671        51.6927 
 640   0.0000       1.909313        51.9550 
 641   0.0000       1.913474        52.0683 
 642   0.0000       1.916054        52.1385 
 643   0.0000       1.924800        52.3765 
 644   0.0000       1.930423        52.5295 
 645   0.0000       1.933194        52.6049 
 646   0.0000       1.936630        52.6984 
 647   0.0000       1.939973        52.7894 
 648   0.0000       1.945834        52.9488 
 649   0.0000       1.950673        53.0805 
 650   0.0000       1.957001        53.2527 
 651   0.0000       1.958890        53.3041 
 652   0.0000       1.962831        53.4113 
 653   0.0000       1.968498        53.5656 
 654   0.0000       1.976018        53.7702 
 655   0.0000       1.980756        53.8991 
 656   0.0000       1.991471        54.1907 
 657   0.0000       1.996208        54.3196 
 658   0.0000       2.001805        54.4719 
 659   0.0000       2.003869        54.5280 
 660   0.0000       2.012719        54.7689 
 661   0.0000       2.013341        54.7858 
 662   0.0000       2.020823        54.9894 
 663   0.0000       2.025725        55.1228 
 664   0.0000       2.029834        55.2346 
 665   0.0000       2.036748        55.4227 
 666   0.0000       2.040071        55.5131 
 667   0.0000       2.050147        55.7873 
 668   0.0000       2.053883        55.8890 
 669   0.0000       2.058795        56.0227 
 670   0.0000       2.061900        56.1072 
 671   0.0000       2.071904        56.3794 
 672   0.0000       2.075110        56.4666 
 673   0.0000       2.081672        56.6452 
 674   0.0000       2.085253        56.7426 
 675   0.0000       2.095418        57.0192 
 676   0.0000       2.097181        57.0672 
 677   0.0000       2.106382        57.3176 
 678   0.0000       2.115056        57.5536 
 679   0.0000       2.119266        57.6682 
 680   0.0000       2.138882        58.2019 
 681   0.0000       2.141680        58.2781 
 682   0.0000       2.143210        58.3197 
 683   0.0000       2.145302        58.3766 
 684   0.0000       2.149044        58.4785 
 685   0.0000       2.149620        58.4941 
 686   0.0000       2.163438        58.8701 
 687   0.0000       2.168567        59.0097 
 688   0.0000       2.171509        59.0898 
 689   0.0000       2.179105        59.2965 
 690   0.0000       2.188612        59.5552 
 691   0.0000       2.197507        59.7972 
 692   0.0000       2.201183        59.8972 
 693   0.0000       2.215805        60.2951 
 694   0.0000       2.219344        60.3914 
 695   0.0000       2.222820        60.4860 
 696   0.0000       2.226692        60.5914 
 697   0.0000       2.236288        60.8525 
 698   0.0000       2.255599        61.3780 
 699   0.0000       2.260403        61.5087 
 700   0.0000       2.261937        61.5504 
 701   0.0000       2.277310        61.9688 
 702   0.0000       2.284098        62.1535 
 703   0.0000       2.286858        62.2286 
 704   0.0000       2.292786        62.3899 
 705   0.0000       2.307944        62.8023 
 706   0.0000       2.324029        63.2400 
 707   0.0000       2.336159        63.5701 
 708   0.0000       2.351852        63.9971 
 709   0.0000       2.371038        64.5192 
 710   0.0000       2.376757        64.6748 
 711   0.0000       2.391076        65.0645 
 712   0.0000       2.396842        65.2214 
 713   0.0000       2.401649        65.3522 
 714   0.0000       2.405848        65.4664 
 715   0.0000       2.422216        65.9118 
 716   0.0000       2.426979        66.0415 
 717   0.0000       2.434037        66.2335 
 718   0.0000       2.436598        66.3032 
 719   0.0000       2.444241        66.5112 
 720   0.0000       2.455533        66.8184 
 721   0.0000       2.460135        66.9437 
 722   0.0000       2.467649        67.1481 
 723   0.0000       2.475210        67.3539 
 724   0.0000       2.483221        67.5719 
 725   0.0000       2.487456        67.6871 
 726   0.0000       2.489531        67.7436 
 727   0.0000       2.496293        67.9276 
 728   0.0000       2.505671        68.1828 
 729   0.0000       2.515564        68.4520 
 730   0.0000       2.524706        68.7007 
 731   0.0000       2.533044        68.9276 
 732   0.0000       2.550113        69.3921 
 733   0.0000       2.554625        69.5149 
 734   0.0000       2.561733        69.7083 
 735   0.0000       2.571504        69.9742 
 736   0.0000       2.577799        70.1455 
 737   0.0000       2.582725        70.2795 
 738   0.0000       2.590814        70.4996 
 739   0.0000       2.598072        70.6971 
 740   0.0000       2.608636        70.9846 
 741   0.0000       2.619676        71.2850 
 742   0.0000       2.621401        71.3319 
 743   0.0000       2.635413        71.7132 
 744   0.0000       2.641669        71.8835 
 745   0.0000       2.645563        71.9894 
 746   0.0000       2.651243        72.1440 
 747   0.0000       2.658766        72.3487 
 748   0.0000       2.668031        72.6008 
 749   0.0000       2.671388        72.6922 
 750   0.0000       2.680138        72.9303 
 751   0.0000       2.693266        73.2875 
 752   0.0000       2.698065        73.4181 
 753   0.0000       2.719368        73.9978 
 754   0.0000       2.722919        74.0944 
 755   0.0000       2.727991        74.2324 
 756   0.0000       2.739067        74.5338 
 757   0.0000       2.747385        74.7601 
 758   0.0000       2.787059        75.8397 
 759   0.0000       2.801693        76.2379 
 760   0.0000       2.815041        76.6012 
 761   0.0000       2.816835        76.6500 
 762   0.0000       2.822486        76.8037 
 763   0.0000       2.827685        76.9452 
 764   0.0000       2.830138        77.0120 
 765   0.0000       2.833322        77.0986 
 766   0.0000       2.857075        77.7450 
 767   0.0000       2.860403        77.8355 
 768   0.0000       2.864006        77.9336 
 769   0.0000       2.874941        78.2311 
 770   0.0000       2.885600        78.5212 
 771   0.0000       2.895136        78.7807 
 772   0.0000       2.907511        79.1174 
 773   0.0000       2.917240        79.3821 
[...]
      dxz     :     0.093664
      dyz     :     0.122895
      dx2y2   :     0.169825
      dxy     :     0.218739
      f0      :     0.005393  f :     0.032037
      f+1     :     0.001941
      f-1     :     0.004446
      f+2     :     0.004984
      f-2     :     0.004070
      f+3     :     0.005557
      f-3     :     0.005646
 44 C s       :     2.684096  s :     2.684096
      pz      :     0.949347  p :     2.824539
      px      :     0.934341
      py      :     0.940851
      dz2     :     0.117423  d :     0.482666
      dxz     :     0.044927
      dyz     :     0.103164
      dx2y2   :     0.081042
      dxy     :     0.136110
      f0      :     0.003983  f :     0.020645
      f+1     :     0.002483
      f-1     :     0.001974
      f+2     :     0.003463
      f-2     :     0.002428
      f+3     :     0.001628
      f-3     :     0.004688
 45 C s       :     2.683986  s :     2.683986
      pz      :     0.944368  p :     2.816074
      px      :     0.935741
      py      :     0.935965
      dz2     :     0.111408  d :     0.475288
      dxz     :     0.093290
      dyz     :     0.124422
      dx2y2   :     0.045246
      dxy     :     0.100923
      f0      :     0.002916  f :     0.020723
      f+1     :     0.003113
      f-1     :     0.002835
      f+2     :     0.003189
      f-2     :     0.003134
      f+3     :     0.000808
      f-3     :     0.004728
 46 H s       :     0.685673  s :     0.685673
      pz      :     0.150578  p :     0.339721
      px      :     0.113623
      py      :     0.075520
      dz2     :     0.011040  d :     0.030651
      dxz     :     0.009903
      dyz     :     0.009425
      dx2y2   :     0.000147
      dxy     :     0.000136
 47 H s       :     0.702517  s :     0.702517
      pz      :     0.081586  p :     0.287417
      px      :     0.115854
      py      :     0.089977
      dz2     :     0.004138  d :     0.029956
      dxz     :     0.006015
      dyz     :     0.003162
      dx2y2   :     0.009162
      dxy     :     0.007479
 48 H s       :     0.705470  s :     0.705470
      pz      :     0.099065  p :     0.337376
      px      :     0.139042
      py      :     0.099269
      dz2     :     0.004818  d :     0.029963
      dxz     :     0.006342
      dyz     :     0.004211
      dx2y2   :     0.007665
      dxy     :     0.006927
 49 H s       :     0.713240  s :     0.713240
      pz      :     0.087234  p :     0.306031
      px      :     0.120047
      py      :     0.098750
      dz2     :     0.002557  d :     0.029625
      dxz     :     0.006559
      dyz     :     0.003456
      dx2y2   :     0.009109
      dxy     :     0.007944
 50 H s       :     0.713454  s :     0.713454
      pz      :     0.106918  p :     0.315549
      px      :     0.083956
      py      :     0.124675
      dz2     :     0.006984  d :     0.029924
      dxz     :     0.003051
      dyz     :     0.007879
      dx2y2   :     0.005210
      dxy     :     0.006799


                      *****************************
                      * MAYER POPULATION ANALYSIS *
                      *****************************

  NA   - Mulliken gross atomic population
  ZA   - Total nuclear charge
  QA   - Mulliken gross atomic charge
  VA   - Mayer's total valence
  BVA  - Mayer's bonded valence
  FA   - Mayer's free valence

  ATOM       NA         ZA         QA         VA         BVA        FA
  0 C      5.6124     6.0000     0.3876     1.6257     1.6257     0.0000
  1 C      5.1269     6.0000     0.8731     0.3002     0.3002    -0.0000
  2 C      5.3650     6.0000     0.6350     1.2663     1.2663    -0.0000
  3 C      5.2622     6.0000     0.7378     1.6275     1.6275     0.0000
  4 C      6.5019     6.0000    -0.5019     3.8746     3.8746     0.0000
  5 H      0.9812     1.0000     0.0188     1.0606     1.0606     0.0000
  6 H      0.9276     1.0000     0.0724     1.0208     1.0208     0.0000
  7 H      0.8814     1.0000     0.1186     0.9486     0.9486    -0.0000
  8 C      6.8550     6.0000    -0.8550     4.3523     4.3523     0.0000
  9 H      0.9122     1.0000     0.0878     0.9539     0.9539    -0.0000
 10 H      0.9159     1.0000     0.0841     1.0700     1.0700     0.0000
 11 H      0.8797     1.0000     0.1203     0.9792     0.9792     0.0000
 12 C      6.9098     6.0000    -0.9098     4.3927     4.3927    -0.0000
 13 H      0.8789     1.0000     0.1211     0.9610     0.9610    -0.0000
 14 H      0.9117     1.0000     0.0883     1.0436     1.0436    -0.0000
 15 H      0.9185     1.0000     0.0815     0.9703     0.9703    -0.0000
 16 C      6.5160     6.0000    -0.5160     3.9625     3.9625     0.0000
 17 H      0.8803     1.0000     0.1197     0.9400     0.9400     0.0000
 18 H      0.9381     1.0000     0.0619     1.0310     1.0310     0.0000
 19 H      0.9682     1.0000     0.0318     1.0525     1.0525     0.0000
 20 C      6.8257     6.0000    -0.8257     4.0651     4.0651    -0.0000
 21 H      0.9025     1.0000     0.0975     0.9667     0.9667    -0.0000
 22 H      0.9278     1.0000     0.0722     0.9770     0.9770    -0.0000
 23 H      0.9178     1.0000     0.0822     0.9751     0.9751     0.0000
 24 Ru    17.6275    16.0000    -1.6275     6.6191     6.6191     0.0000
 25 Cl    17.7251    17.0000    -0.7251     0.5673     0.5673    -0.0000
 26 P     13.5122    15.0000     1.4878     2.3286     2.3286     0.0000
 27 C      6.7589     6.0000    -0.7589     4.2042     4.2042    -0.0000
 28 H      0.9336     1.0000     0.0664     1.1194     1.1194    -0.0000
 29 H      0.9182     1.0000     0.0818     1.0552     1.0552     0.0000
 30 H      0.8568     1.0000     0.1432     0.9985     0.9985    -0.0000
 31 C      6.5923     6.0000    -0.5923     4.1812     4.1812    -0.0000
 32 H      0.8823     1.0000     0.1177     1.0347     1.0347     0.0000
 33 H      0.9559     1.0000     0.0441     1.0719     1.0719    -0.0000
 34 H      0.9697     1.0000     0.0303     1.0862     1.0862    -0.0000
 35 C      6.3898     6.0000    -0.3898     4.0753     4.0753     0.0000
 36 H      0.8615     1.0000     0.1385     1.0233     1.0233    -0.0000
 37 H      0.8243     1.0000     0.1757     0.9149     0.9149     0.0000
 38 C      5.4951     6.0000     0.5049     2.1187     2.1187     0.0000
 39 P     13.5863    15.0000     1.4137     2.4864     2.4864     0.0000
 40 H      0.8591     1.0000     0.1409     1.0038     1.0038    -0.0000
 41 H      0.9025     1.0000     0.0975     1.0271     1.0271     0.0000
 42 H      0.9491     1.0000     0.0509     1.1704     1.1704     0.0000
 43 C      5.9668     6.0000     0.0332     3.3390     3.3390    -0.0000
 44 C      6.6800     6.0000    -0.6800     4.0996     4.0996     0.0000
 45 C      6.6398     6.0000    -0.6398     4.1065     4.1065     0.0000
 46 H      0.7883     1.0000     0.2117     0.9021     0.9021     0.0000
 47 H      0.8693     1.0000     0.1307     0.9881     0.9881     0.0000
 48 H      0.9178     1.0000     0.0822     1.0453     1.0453     0.0000
 49 H      0.8734     1.0000     0.1266     1.0180     1.0180     0.0000
 50 H      0.9477     1.0000     0.0523     1.0653     1.0653     0.0000

  Mayer bond orders larger than 0.100000
B(  0-C ,  1-C ) :  -0.2122 B(  0-C ,  2-C ) :  -0.3738 B(  0-C ,  3-C ) :   0.5009 
B(  0-C ,  4-C ) :   0.7197 B(  0-C ,  6-H ) :  -0.1152 B(  0-C ,  7-H ) :  -0.1254 
B(  0-C ,  8-C ) :  -0.1692 B(  0-C , 12-C ) :   0.1277 B(  0-C , 24-Ru) :   0.9284 
B(  0-C , 25-Cl) :   0.1035 B(  0-C , 38-C ) :   0.2050 B(  1-C ,  2-C ) :  -0.3060 
B(  1-C ,  3-C ) :  -0.2941 B(  1-C ,  4-C ) :  -0.1562 B(  1-C , 20-C ) :   0.7953 
B(  1-C , 22-H ) :  -0.1640 B(  1-C , 23-H ) :  -0.1402 B(  1-C , 24-Ru) :   0.2162 
B(  1-C , 26-P ) :   0.2477 B(  1-C , 38-C ) :   0.1945 B(  2-C ,  3-C ) :   0.8514 
B(  2-C ,  8-C ) :  -0.1512 B(  2-C , 12-C ) :   0.9656 B(  2-C , 14-H ) :  -0.1393 
B(  2-C , 15-H ) :  -0.1014 B(  2-C , 25-Cl) :  -0.1954 B(  2-C , 38-C ) :   0.4887 
B(  3-C ,  8-C ) :   0.9795 B(  3-C ,  9-H ) :  -0.1051 B(  3-C , 10-H ) :  -0.1129 
B(  3-C , 12-C ) :  -0.2583 B(  3-C , 14-H ) :   0.1125 B(  3-C , 38-C ) :  -0.2515 
B(  4-C ,  5-H ) :   1.0092 B(  4-C ,  6-H ) :   1.0124 B(  4-C ,  7-H ) :   0.9811 
B(  4-C ,  8-C ) :   0.1096 B(  4-C , 20-C ) :   0.1010 B(  4-C , 24-Ru) :   0.1241 
B(  8-C ,  9-H ) :   0.9742 B(  8-C , 10-H ) :   1.0121 B(  8-C , 11-H ) :   0.9672 
B(  8-C , 12-C ) :   0.2273 B(  8-C , 24-Ru) :   0.2387 B(  8-C , 38-C ) :   0.1260 
B( 12-C , 13-H ) :   0.9715 B( 12-C , 14-H ) :   1.0094 B( 12-C , 15-H ) :   0.9853 
B( 12-C , 24-Ru) :   0.3402 B( 12-C , 38-C ) :  -0.1687 B( 16-C , 17-H ) :   0.9943 
B( 16-C , 18-H ) :   1.0170 B( 16-C , 19-H ) :   1.0111 B( 16-C , 38-C ) :   0.6851 
B( 17-H , 38-C ) :  -0.1253 B( 20-C , 21-H ) :   0.9854 B( 20-C , 22-H ) :   1.0505 
B( 20-C , 23-H ) :   1.0265 B( 20-C , 24-Ru) :   0.1244 B( 20-C , 38-C ) :  -0.2505 
B( 24-Ru, 25-Cl) :   0.7614 B( 24-Ru, 26-P ) :   0.8862 B( 24-Ru, 27-C ) :   0.1654 
B( 24-Ru, 31-C ) :   0.1238 B( 24-Ru, 38-C ) :   1.1007 B( 24-Ru, 39-P ) :   0.9274 
B( 24-Ru, 44-C ) :   0.1274 B( 24-Ru, 45-C ) :   0.1562 B( 25-Cl, 26-P ) :  -0.2373 
B( 26-P , 27-C ) :   0.7344 B( 26-P , 31-C ) :   0.7461 B( 26-P , 35-C ) :   0.4558 
B( 26-P , 39-P ) :  -0.3841 B( 26-P , 43-C ) :   0.1412 B( 27-C , 28-H ) :   1.0563 
B( 27-C , 29-H ) :   1.0327 B( 27-C , 30-H ) :   1.0025 B( 27-C , 31-C ) :   0.1344 
B( 27-C , 35-C ) :   0.1113 B( 31-C , 32-H ) :   1.0325 B( 31-C , 33-H ) :   0.9911 
B( 31-C , 34-H ) :   1.0316 B( 31-C , 35-C ) :   0.1286 B( 35-C , 36-H ) :   0.9095 
B( 35-C , 37-H ) :   0.9286 B( 35-C , 39-P ) :   0.5687 B( 35-C , 43-C ) :   0.9230 
B( 39-P , 43-C ) :   0.1501 B( 39-P , 44-C ) :   0.7494 B( 39-P , 45-C ) :   0.6194 
B( 40-H , 44-C ) :   0.9980 B( 41-H , 44-C ) :   1.0063 B( 42-H , 44-C ) :   1.0264 
B( 43-C , 45-C ) :   0.1519 B( 43-C , 46-H ) :   0.9394 B( 43-C , 47-H ) :   0.9712 
B( 44-C , 45-C ) :   0.1141 B( 45-C , 48-H ) :   1.0164 B( 45-C , 49-H ) :   1.0186 
B( 45-C , 50-H ) :   1.0225 

-------
TIMINGS
-------

Total SCF time: 0 days 0 hours 4 min 41 sec 

Total time                  ....     281.634 sec
Sum of individual times     ....     279.244 sec  ( 99.2%)

Fock matrix formation       ....     262.988 sec  ( 93.4%)
  XC integration            ....      20.131 sec  (  7.7% of F)
    Basis function eval.    ....       3.202 sec  ( 15.9% of XC)
    Density eval.           ....       8.531 sec  ( 42.4% of XC)
    XC-Functional eval.     ....       0.113 sec  (  0.6% of XC)
    XC-Potential eval.      ....       6.683 sec  ( 33.2% of XC)
Diagonalization             ....       4.838 sec  (  1.7%)
Density matrix formation    ....       0.273 sec  (  0.1%)
Population analysis         ....       0.465 sec  (  0.2%)
Initial guess               ....       3.100 sec  (  1.1%)
Orbital Transformation      ....       0.000 sec  (  0.0%)
Orbital Orthonormalization  ....       0.000 sec  (  0.0%)
DIIS solution               ....       5.416 sec  (  1.9%)
Grid generation             ....       2.165 sec  (  0.8%)


           ************************************************************
           *        Program running with 24 parallel MPI-processes    *
           *              working on a common directory               *
           ************************************************************

------------------------------------------------------------------------------
                                ORCA  MP2 
------------------------------------------------------------------------------

Freezing NCore=62 chemical core electrons

-------------
RI-MP2 ENERGY
-------------
Dimension of the basis                    ... 1322
Memory devoted to MP2                     ... 5000 MB   
Data format for buffers                   ... DOUBLE
Compression type for matrix containers    ... UNCOMPRESSED
Scaling for aa/bb pairs                   ...   4.000e-01
Scaling for ab pairs                      ...   4.700e-01
Overall scaling of the MP2 energy         ...   1.000e+00
Calculating two index integrals           ... done (    0.072 sec)
Cholesky decomposition of V**-1           ... done (    1.115 sec)

-----------------
RI-TRANSFORMATION (AUX index driven)
-----------------

Dimension of the orbital-basis         ... 1322
Dimension of the aux-basis             ... 3274
Transformation of internal/external MOs...   31-  94 to   95-1321
Number Format for Storage              ... Double (8 Byte)
Integral mode                          ... Direct

First Phase: integral generation and transformation of MO indices
  Aux angular momentum 0               ... done (    0.736 sec)
  Aux angular momentum 1               ... done (    1.474 sec)
  Aux angular momentum 2               ... done (    1.839 sec)
  Aux angular momentum 3               ... done (    1.362 sec)
  Aux angular momentum 4               ... done (    0.660 sec)
  Aux angular momentum 5               ... done (    0.416 sec)
  Aux angular momentum 6               ... done (    0.572 sec)
Closing buffer VIA ( 1.92 GB; CompressionRatio= 1.00)
  Phase 1 completed in     7.255 sec
Second Phase: sorting and transformation of aux index

IA-Transformation
Memory available                       ... 4778 MB 
Max. # MO pairs treated in a batch     ... 3    
# of internal orbitals                 ... 64
# batches for internal orbitals        ... 1
Closing buffer IAV ( 0.09 GB; CompressionRatio= 1.00)
(ia|v) transformation done in     1.927 sec

  Phase 2 completed in     4.283 sec
RI-Integral transformation completed in    11.606 sec
Opening buffers                              ... done

Starting loop over batches of integrals:

Operator 0  - window                       ... ( 31- 94)x( 95-1321)
Operator 0  - Memory available             ...  5000 MB
Operator 0  - Memory needed per MO         ...  30.6 MB
Operator 0  - Number of orbitals per batch ... 3
Operator 0  - Number of batches            ... 1

OPERATOR  0   PASS   0:  MOs    31 ...   33 +   34 ...   36 +   37 ...   39 +   40 ...   42
                            +   43 ...   45 +   46 ...   48 +   49 ...   51 +   52 ...   54
                            +   55 ...   57 +   58 ...   60 +   61 ...   63 +   64 ...   66
                            +   67 ...   69 +   70 ...   72 +   73 ...   75 +   76 ...   78
                            +   79 ...   81 +   82 ...   84 +   85 ...   87 +   88 ...   90
                            +   91 ...   93 +   94 ...   94
  Reading integrals       ... ok
  Internal MO  33
Time spent in pair loops =     1.367 sec
Deleting buffer (Ka|jb)[aa] ...done

-----------------------------------------------
 RI-MP2 CORRELATION ENERGY:     -2.068559996 Eh
-----------------------------------------------


-------
TIMINGS
-------

Total time                :   47.070 sec
Integral trafo            :   11.644 sec ( 24.7%)
I/O of integrals          :    0.133 sec (  0.3%)
K(i,j) Operators          :    1.014 sec (  2.2%)
T(i,j) pair energies      :    0.129 sec (  0.3%)
V-calculation             :    0.072 sec (  0.2%)
V**(-1/2)                 :    1.115 sec (  2.4%)
Gamma(ia|P)               :    0.000 sec (  0.0%)
Gamma-Trafo               :    0.000 sec (  0.0%)
D(virtual)                :    0.000 sec (  0.0%)
D(internal)               :    0.000 sec (  0.0%)
W(virtual)                :    0.000 sec (  0.0%)
W(internal)               :    0.000 sec (  0.0%)
L(virtual)                :    0.000 sec (  0.0%)
L(internal)               :    0.000 sec (  0.0%)
G(D)                      :    0.000 sec (  0.0%)
G(Z)                      :    0.000 sec (  0.0%)
Z-Vector Solution         :    0.000 sec (  0.0%)
Z-Vector Solution         :    0.000 sec (  0.0%)
3-Index Derivative 
+ Separable RIJ part      :    0.000 sec (  0.0%)
2-Index Derivative 
+ Separable RIJ part      :    0.000 sec (  0.0%)
Separable Gradient (X)    :    0.000 sec (  0.0%)


---------------------------------------
MP2 TOTAL ENERGY:    -1865.058432407 Eh
---------------------------------------


-------------------------------------------------------------------------------
                          DFT DISPERSION CORRECTION                            
                                                                               
                              DFTD3 V3.1  Rev 1                                
                          USING Becke-Johnson damping                          
-------------------------------------------------------------------------------
The DSD-BLYP/2013 functional is recognized
Active option DFTDOPT                   ...         4   

molecular C6(AA) [au] = 29519.965825 


            DFT-D V3
 parameters
 s6 scaling factor         :     0.5700 
 a1 scaling factor         :     0.0000 
 s8 scaling factor         :     0.0000 
 a2 scaling factor         :     5.4000 
 ad hoc parameters k1-k3   :    16.0000     1.3333    -4.0000 

 Edisp/kcal,au: -50.836783473101  -0.081013562586 
 E6   /kcal   : -50.836783473 
 E8   /kcal   :  -0.000000000 
 % E8         :   0.000000000 

-------------------------   ----------------
Dispersion correction           -0.081013563
-------------------------   ----------------


-------------------------   --------------------
FINAL SINGLE POINT ENERGY     -1865.139445969323
-------------------------   --------------------


                            ***************************************
                            *     ORCA property calculations      *
                            ***************************************


  WARNING: The energy has been calculated at the MP2 level but the densities
           used in the property calculations are still SCF densities
           MP2 response densities have not been calculated 
           use %mp2 Density relaxed end
           or  %mp2 Density unrelaxed end

                                    ---------------------
                                    Active property flags
                                    ---------------------
   (+) Dipole Moment


------------------------------------------------------------------------------
                       ORCA ELECTRIC PROPERTIES CALCULATION
------------------------------------------------------------------------------

Dipole Moment Calculation                       ... on
Quadrupole Moment Calculation                   ... off
Polarizability Calculation                      ... off
GBWName                                         ... MOR33_pr28.gbw
Electron density file                           ... MOR33_pr28.scfp
The origin for moment calculation is the CENTER OF MASS  = ( 0.007976, -0.006902 -0.069662)

-------------
DIPOLE MOMENT
-------------
                                X             Y             Z
Electronic contribution:     11.91183      -1.41951     -17.56361
Nuclear contribution   :    -12.48154       1.60484      19.54441
                        -----------------------------------------
Total Dipole Moment    :     -0.56971       0.18533       1.98080
                        -----------------------------------------
Magnitude (a.u.)       :      2.06942
Magnitude (Debye)      :      5.26004



--------------------
Rotational spectrum 
--------------------
 
Rotational constants in cm-1:     0.010225     0.008868     0.007900 
Rotational constants in MHz :   306.523373   265.843264   236.824033 

 Dipole components along the rotational axes: 
x,y,z [a.u.] :    -0.516066    -0.212344     1.992755 
x,y,z [Debye]:    -1.311737    -0.539736     5.065180 

 

Timings for individual modules:

Sum of individual times         ...      338.771 sec (=   5.646 min)
GTO integral calculation        ...        8.627 sec (=   0.144 min)   2.5 %
SCF iterations                  ...      282.126 sec (=   4.702 min)  83.3 %
MP2 module                      ...       48.018 sec (=   0.800 min)  14.2 %
                             ****ORCA TERMINATED NORMALLY****
TOTAL RUN TIME: 0 days 0 hours 5 minutes 39 seconds 548 msec
