
                                 *****************
                                 * O   R   C   A *
                                 *****************

           --- An Ab Initio, DFT and Semiempirical electronic structure package ---

                  #######################################################
                  #                        -***-                        #
                  #          Department of theory and spectroscopy      #
                  #               Directorship: Frank Neese             #
                  #        Max Planck Institute fuer Kohlenforschung    #
                  #                Kaiser Wilhelm Platz 1               #
                  #                 D-45470 Muelheim/Ruhr               #
                  #                      Germany                        #
                  #                                                     #
                  #                  All rights reserved                #
                  #                        -***-                        #
                  #######################################################


                         Program Version 4.2.0 -  RELEASE  -


 With contributions from (in alphabetic order):
   Daniel Aravena         : Magnetic Suceptibility
   Michael Atanasov       : Ab Initio Ligand Field Theory (pilot matlab implementation)
   Alexander A. Auer      : GIAO ZORA, VPT2
   Ute Becker             : Parallelization
   Giovanni Bistoni       : ED, misc. LED, open-shell LED, HFLED
   Martin Brehm           : Molecular dynamics
   Dmytro Bykov           : SCF Hessian
   Vijay G. Chilkuri      : MRCI spin determinant printing, contributions to CSF-ICE
   Dipayan Datta          : RHF DLPNO-CCSD density
   Achintya Kumar Dutta   : EOM-CC, STEOM-CC
   Dmitry Ganyushin       : Spin-Orbit,Spin-Spin,Magnetic field MRCI
   Miquel Garcia          : C-PCM Hessian, Gaussian charge scheme
   Yang Guo               : DLPNO-NEVPT2, CIM, IAO-localization
   Andreas Hansen         : Spin unrestricted coupled pair/coupled cluster methods
   Benjamin Helmich-Paris : CASSCF linear response (MC-RPA)
   Lee Huntington         : MR-EOM, pCC
   Robert Izsak           : Overlap fitted RIJCOSX, COSX-SCS-MP3, EOM
   Christian Kollmar      : KDIIS, OOCD, Brueckner-CCSD(T), CCSD density
   Simone Kossmann        : Meta GGA functionals, TD-DFT gradient, OOMP2, MP2 Hessian
   Martin Krupicka        : AUTO-CI
   Lucas Lang             : DCDCAS
   Dagmar Lenk            : GEPOL surface, SMD
   Dimitrios Liakos       : Extrapolation schemes; Compound Job, initial MDCI parallelization
   Dimitrios Manganas     : Further ROCIS development; embedding schemes
   Dimitrios Pantazis     : SARC Basis sets
   Taras Petrenko         : DFT Hessian,TD-DFT gradient, ASA, ECA, R-Raman, ABS, FL, XAS/XES, NRVS
   Peter Pinski           : DLPNO-MP2, DLPNO-MP2 Gradient
   Christoph Reimann      : Effective Core Potentials
   Marius Retegan         : Local ZFS, SOC
   Christoph Riplinger    : Optimizer, TS searches, QM/MM, DLPNO-CCSD(T), (RO)-DLPNO pert. Triples
   Tobias Risthaus        : Range-separated hybrids, TD-DFT gradient, RPA, STAB
   Michael Roemelt        : Original ROCIS implementation
   Masaaki Saitow         : Open-shell DLPNO-CCSD energy and density
   Barbara Sandhoefer     : DKH picture change effects
   Avijit Sen             : IP-ROCIS
   Kantharuban Sivalingam : CASSCF convergence, NEVPT2, FIC-MRCI
   Bernardo de Souza      : ESD, SOC TD-DFT
   Georgi Stoychev        : AutoAux, RI-MP2 NMR
   Willem Van den Heuvel  : Paramagnetic NMR
   Boris Wezisla          : Elementary symmetry handling
   Frank Wennmohs         : Technical directorship


 We gratefully acknowledge several colleagues who have allowed us to
 interface, adapt or use parts of their codes:
   Stefan Grimme, W. Hujo, H. Kruse,             : VdW corrections, initial TS optimization,
                  C. Bannwarth                     DFT functionals, gCP, sTDA/sTD-DF
   Ed Valeev, F. Pavosevic, A. Kumar             : LibInt (2-el integral package), F12 methods
   Garnet Chan, S. Sharma, J. Yang, R. Olivares  : DMRG
   Ulf Ekstrom                                   : XCFun DFT Library
   Mihaly Kallay                                 : mrcc  (arbitrary order and MRCC methods)
   Andreas Klamt, Michael Diedenhofen            : otool_cosmo (COSMO solvation model)
   Jiri Pittner, Ondrej Demel                    : Mk-CCSD
   Frank Weinhold                                : gennbo (NPA and NBO analysis)
   Christopher J. Cramer and Donald G. Truhlar   : smd solvation model
   Lars Goerigk                                  : TD-DFT with DH, B97 family of functionals
   V. Asgeirsson, H. Jonsson                     : NEB implementation
   FAccTs GmbH                                   : IRC, NEB, NEB-TS, Multilevel, MM, QM/MM, CI optimization
   S Lehtola, MJT Oliveira, MAL Marques          : LibXC Library


 Your calculation uses the libint2 library for the computation of 2-el integrals
 For citations please refer to: http://libint.valeyev.net

 Your ORCA version has been built with support for libXC version: 4.2.3
 For citations please refer to: https://tddft.org/programs/libxc/

 This ORCA versions uses:
   CBLAS   interface :  Fast vector & matrix operations
   LAPACKE interface :  Fast linear algebra routines
   SCALAPACK package :  Parallel linear algebra routines


Your calculation utilizes the atom-pairwise dispersion correction
with the Becke-Johnson damping scheme (D3BJ)
Cite in your paper:
S.Grimme, S.Ehrlich, L.Goerigk, J Comput Chem, (2011), 32, 1456–1465 
S.Grimme, J.Antony, S.Ehrlich and H.Krieg, J.Chem.Phys., 132, (2010), 154104 
   

----- Orbital basis set information -----
Your calculation utilizes the basis: def2-TZVPPD
   F. Weigend and R. Ahlrichs, Phys. Chem. Chem. Phys. 7, 3297 (2005).
   D. Rappoport and F. Furche, J. Chem. Phys. 133 134105 (2010).

----- AuxC basis set information -----
Your calculation utilizes the auxiliary basis: def2-TZVPPD/C
   A. Hellweg, C. Hattig, S. Hofener and W. Klopper, Theor. Chem. Acc. 117, 587 (2007).

----- AuxJK basis set information -----
Your calculation utilizes the auxiliary basis: def2/JK
   H-Ba, Hf-Rn: F. Weigend, J. Comput. Chem. 29, 167 (2008).

cite the ECPs for Zr [Def2-ECP] as follows:
Ce-Yb(ecp-28): M. Dolg, H. Stoll, H.Preuss, J. Chem. Phys., 1989, 90, 1730-1734.
Y-Cd(ecp-28), Hf-Hg(ecp-46): D. Andrae,U. Haeussermann, M. Dolg, H. Stoll, H. Preuss, Theor. Chim. Acta, 1990, 77, 123-141.
In-Sb(ecp-28), Tl-Bi(ecp-46): B. Metz, H. Stoll, M. Dolg, J. Chem. Phys., 2000, 113, 2563-2569.
Te-Xe(ecp-28), Po-Rn(ecp-46): K. A. Peterson, D. Figgen, E. Goll, H. Stoll, M. Dolg, J. Chem. Phys., 2003, 119, 11113-11123.
Rb(ecp-28), Cs(ecp-46): T. Leininger, A. Nicklass, W. Kuechle, H. Stoll, M. Dolg, A. Bergner, Chem. Phys. Lett., 1996, 255, 274-280.
Sr(ecp-28), Ba(ecp-46): M. Kaupp, P. V. Schleyer, H. Stoll and H. Preuss, J. Chem. Phys., 1991, 94, 1360-1366.
La(ecp-46): M. Dolg, H. Stoll, A. Savin, H. Preuss, Theor. Chim. Acta, 1989, 75, 173-194.
Lu(ecp-28): X. Cao, M. Dolg, J. Chem. Phys., 2001, 115, 7348-7355.

ECP parameters for Zr [Def2-ECP] have been obtained from:
TURBOMOLE (7.0.2)

================================================================================
                                        WARNINGS
                       Please study these warnings very carefully!
================================================================================


WARNING: No MP2 level density has been requested!
         To caclulate MP2 level properties use
         %mp2 Density relaxed end
         or
         %mp2 Density unrelaxed end
         Otherwise for double-hybrid DFT only the energy is correct!

WARNING: There are different parametrizations of Gershom Martin's DSD-DFs
         for use with and without D3(BJ)!
         You are using the D3(BJ) parametrized version,
         consistent with the 2013 article (S. Kozuch and J. M. L. Martin, JCC 2013, 34, 2327)

WARNING: The frozen-core approximation is turned on by default for 
         the MP2 part of double-hybrid DFT.

INFO   : the flag for use of LIBINT has been found!

================================================================================
                                       INPUT FILE
================================================================================
NAME = TMB01_R1.in
|  1> #
|  2> # TMB01_R1 ri-DSD-BLYP/2013-D3BJ/Def2-TZVPPD
|  3> #
|  4> ! rijk ri-dsd-blyp/2013 d3bj def2-tzvppd def2/jk def2-tzvppd/c grid4 nofinalgrid
|  5> 
|  6> *xyz 0 1
|  7> Zr      -0.000671    0.112924   -0.223454 
|  8> C       -2.181938   -0.834851   -1.042825 
|  9> C       -1.643164   -1.771750   -0.135830 
| 10> C       -2.502306    0.332733   -0.316676 
| 11> H       -1.308937   -2.768103   -0.380464 
| 12> C       -1.636664   -1.184419    1.151214 
| 13> H       -2.895434    1.248967   -0.729119 
| 14> C       -2.175001    0.113493    1.036510 
| 15> H       -1.306352   -1.655857    2.064126 
| 16> H       -2.282924    0.831022    1.835850 
| 17> C        1.600796   -1.794999   -0.006343 
| 18> C        2.125532   -0.971960   -1.023204 
| 19> C        1.653632   -1.076274    1.213076 
| 20> H        2.228565   -1.232630   -2.063673 
| 21> C        2.505388    0.254502   -0.432287 
| 22> H        1.350619   -1.442345    2.182051 
| 23> C        2.228391    0.183709    0.945544 
| 24> H        2.903936    1.111956   -0.952399 
| 25> H        2.382975    0.976423    1.661482 
| 26> Cl       0.011968    2.512474    0.074703 
| 27> H       -0.001250   -0.010619   -2.053074 
| 28> H       -2.330784   -0.986753   -2.099038 
| 29> H        1.234974   -2.802168   -0.132604 
| 30> *
| 31> 
| 32> %maxcore 5000
| 33> 
| 34> %pal
| 35> nprocs = 24
| 36> end
| 37> 
| 38> 
| 39>                          ****END OF INPUT****
================================================================================

                       ****************************
                       * Single Point Calculation *
                       ****************************

---------------------------------
CARTESIAN COORDINATES (ANGSTROEM)
---------------------------------
  Zr    -0.000671    0.112924   -0.223454
  C     -2.181938   -0.834851   -1.042825
  C     -1.643164   -1.771750   -0.135830
  C     -2.502306    0.332733   -0.316676
  H     -1.308937   -2.768103   -0.380464
  C     -1.636664   -1.184419    1.151214
  H     -2.895434    1.248967   -0.729119
  C     -2.175001    0.113493    1.036510
  H     -1.306352   -1.655857    2.064126
  H     -2.282924    0.831022    1.835850
  C      1.600796   -1.794999   -0.006343
  C      2.125532   -0.971960   -1.023204
  C      1.653632   -1.076274    1.213076
  H      2.228565   -1.232630   -2.063673
  C      2.505388    0.254502   -0.432287
  H      1.350619   -1.442345    2.182051
  C      2.228391    0.183709    0.945544
  H      2.903936    1.111956   -0.952399
  H      2.382975    0.976423    1.661482
  Cl     0.011968    2.512474    0.074703
  H     -0.001250   -0.010619   -2.053074
  H     -2.330784   -0.986753   -2.099038
  H      1.234974   -2.802168   -0.132604

----------------------------
CARTESIAN COORDINATES (A.U.)
----------------------------
  NO LB      ZA    FRAG     MASS         X           Y           Z
   0 Zr   12.0000*   0    91.220   -0.001268    0.213395   -0.422267
   1 C     6.0000    0    12.011   -4.123265   -1.577640   -1.970654
   2 C     6.0000    0    12.011   -3.105130   -3.348122   -0.256682
   3 C     6.0000    0    12.011   -4.728673    0.628774   -0.598431
   4 H     1.0000    0     1.008   -2.473532   -5.230957   -0.718973
   5 C     6.0000    0    12.011   -3.092847   -2.238228    2.175479
   6 H     1.0000    0     1.008   -5.471577    2.360206   -1.377835
   7 C     6.0000    0    12.011   -4.110156    0.214471    1.958720
   8 H     1.0000    0     1.008   -2.468648   -3.129116    3.900633
   9 H     1.0000    0     1.008   -4.314101    1.570404    3.469254
  10 C     6.0000    0    12.011    3.025066   -3.392057   -0.011987
  11 C     6.0000    0    12.011    4.016673   -1.836738   -1.933575
  12 C     6.0000    0    12.011    3.124912   -2.033863    2.292381
  13 H     1.0000    0     1.008    4.211378   -2.329333   -3.899777
  14 C     6.0000    0    12.011    4.734497    0.480939   -0.816904
  15 H     1.0000    0     1.008    2.552300   -2.725637    4.123479
  16 C     6.0000    0    12.011    4.211049    0.347160    1.786819
  17 H     1.0000    0     1.008    5.487644    2.101292   -1.799773
  18 H     1.0000    0     1.008    4.503170    1.845172    3.139746
  19 Cl   17.0000    0    35.453    0.022616    4.747888    0.141168
  20 H     1.0000    0     1.008   -0.002362   -0.020067   -3.879748
  21 H     1.0000    0     1.008   -4.404543   -1.864693   -3.966607
  22 H     1.0000    0     1.008    2.333763   -5.295330   -0.250585
* core charge reduced due to ECP

--------------------------------
INTERNAL COORDINATES (ANGSTROEM)
--------------------------------
 Zr     0   0   0     0.000000000000     0.00000000     0.00000000
 C      1   0   0     2.515466559419     0.00000000     0.00000000
 C      2   1   0     1.410920653085    73.12247516     0.00000000
 C      2   1   3     1.411800418856    73.59840866   114.94503470
 H      3   2   1     1.079014727469   125.85250426   245.37267947
 C      3   2   1     1.414737506217   108.11325565    66.23793646
 H      4   2   1     1.078954862536   126.04072486   111.68690894
 C      4   2   1     1.409364073340   108.20939605   293.76875367
 H      6   3   2     1.079244237850   126.12795999   178.46472239
 H      8   4   2     1.079555313715   125.75431252   178.45751450
 C      1   2   3     2.500400750348   107.22796614    37.91257856
 C     11   1   2     1.409520258293    74.35024165   114.93379122
 C     11   1   2     1.416453305295    73.22968211   229.87141530
 H     12  11   1     1.077562243191   126.22323460   245.56044773
 C     12  11   1     1.413393971640   107.76560677    66.10921066
 H     13  11   1     1.079230005993   126.18261805   115.05657889
 C     15  12  11     1.407180603696   108.22840952     0.56700398
 H     15  12  11     1.079159099931   125.96041597   182.70881656
 H     17  15  12     1.079286300615   125.75809091   181.83498265
 Cl     1   2   3     2.418035885480   114.74596236   216.43021223
 H      1   2   3     1.833786397727    69.47288006   123.52537725
 H      2   1   3     1.077411365584   119.48808811   237.59279035
 H     11   1   2     1.078961060635   119.00971341   352.14516703

---------------------------
INTERNAL COORDINATES (A.U.)
---------------------------
 Zr     0   0   0     0.000000000000     0.00000000     0.00000000
 C      1   0   0     4.753542896339     0.00000000     0.00000000
 C      2   1   0     2.666253631024    73.12247516     0.00000000
 C      2   1   3     2.667916147392    73.59840866   114.94503470
 H      3   2   1     2.039042329383   125.85250426   245.37267947
 C      3   2   1     2.673466438137   108.11325565    66.23793646
 H      4   2   1     2.038929201055   126.04072486   111.68690894
 C      4   2   1     2.663312121600   108.20939605   293.76875367
 H      6   3   2     2.039476041149   126.12795999   178.46472239
 H      8   4   2     2.040063889341   125.75431252   178.45751450
 C      1   2   3     4.725072643208   107.22796614    37.91257856
 C     11   1   2     2.663607268387    74.35024165   114.93379122
 C     11   1   2     2.676708828496    73.22968211   229.87141530
 H     12  11   1     2.036297531884   126.22323460   245.56044773
 C     12  11   1     2.670927525735   107.76560677    66.10921066
 H     13  11   1     2.039449146836   126.18261805   115.05657889
 C     15  12  11     2.659185961952   108.22840952     0.56700398
 H     15  12  11     2.039315153799   125.96041597   182.70881656
 H     17  15  12     2.039555528256   125.75809091   181.83498265
 Cl     1   2   3     4.569425605551   114.74596236   216.43021223
 H      1   2   3     3.465354079815    69.47288006   123.52537725
 H      2   1   3     2.036012414527   119.48808811   237.59279035
 H     11   1   2     2.038940913765   119.00971341   352.14516703

---------------------
BASIS SET INFORMATION
---------------------
There are 4 groups of distinct atoms

 Group   1 Type Zr  : 7s7p5d2f1g contracted to 6s4p3d2f1g pattern {211111/4111/311/11/1}
 Group   2 Type C   : 12s6p3d1f contracted to 6s3p3d1f pattern {621111/411/111/1}
 Group   3 Type H   : 5s3p1d contracted to 3s3p1d pattern {311/111/1}
 Group   4 Type Cl  : 15s10p4d1f contracted to 6s6p4d1f pattern {732111/511111/1111/1}

Atom   0Zr   basis set group =>   1
Atom   1C    basis set group =>   2
Atom   2C    basis set group =>   2
Atom   3C    basis set group =>   2
Atom   4H    basis set group =>   3
Atom   5C    basis set group =>   2
Atom   6H    basis set group =>   3
Atom   7C    basis set group =>   2
Atom   8H    basis set group =>   3
Atom   9H    basis set group =>   3
Atom  10C    basis set group =>   2
Atom  11C    basis set group =>   2
Atom  12C    basis set group =>   2
Atom  13H    basis set group =>   3
Atom  14C    basis set group =>   2
Atom  15H    basis set group =>   3
Atom  16C    basis set group =>   2
Atom  17H    basis set group =>   3
Atom  18H    basis set group =>   3
Atom  19Cl   basis set group =>   4
Atom  20H    basis set group =>   3
Atom  21H    basis set group =>   3
Atom  22H    basis set group =>   3
---------------------------------
AUXILIARY/C BASIS SET INFORMATION
---------------------------------
There are 4 groups of distinct atoms

 Group   1 Type Zr  : 8s7p6d5f4g3h1i contracted to 8s7p6d5f4g3h1i pattern {11111111/1111111/111111/11111/1111/111/1}
 Group   2 Type C   : 9s7p6d4f1g contracted to 9s7p5d4f1g pattern {111111111/1111111/21111/1111/1}
 Group   3 Type H   : 5s4p3d1f contracted to 5s4p3d1f pattern {11111/1111/111/1}
 Group   4 Type Cl  : 12s9p8d6f2g contracted to 12s9p8d6f2g pattern {111111111111/111111111/11111111/111111/11}

Atom   0Zr   basis set group =>   1
Atom   1C    basis set group =>   2
Atom   2C    basis set group =>   2
Atom   3C    basis set group =>   2
Atom   4H    basis set group =>   3
Atom   5C    basis set group =>   2
Atom   6H    basis set group =>   3
Atom   7C    basis set group =>   2
Atom   8H    basis set group =>   3
Atom   9H    basis set group =>   3
Atom  10C    basis set group =>   2
Atom  11C    basis set group =>   2
Atom  12C    basis set group =>   2
Atom  13H    basis set group =>   3
Atom  14C    basis set group =>   2
Atom  15H    basis set group =>   3
Atom  16C    basis set group =>   2
Atom  17H    basis set group =>   3
Atom  18H    basis set group =>   3
Atom  19Cl   basis set group =>   4
Atom  20H    basis set group =>   3
Atom  21H    basis set group =>   3
Atom  22H    basis set group =>   3
----------------------------------
AUXILIARY/JK BASIS SET INFORMATION
----------------------------------
There are 4 groups of distinct atoms

 Group   1 Type Zr  : 13s12p10d9f6g3h2i contracted to 11s10p9d8f6g3h2i pattern {31111111111/3111111111/211111111/21111111/111111/111/11}
 Group   2 Type C   : 14s10p6d2f1g contracted to 10s8p5d1f1g pattern {5111111111/31111111/21111/2/1}
 Group   3 Type H   : 4s2p2d contracted to 2s2p2d pattern {31/11/11}
 Group   4 Type Cl  : 16s12p10d4f1g contracted to 13s11p9d4f1g pattern {4111111111111/21111111111/211111111/1111/1}

Atom   0Zr   basis set group =>   1
Atom   1C    basis set group =>   2
Atom   2C    basis set group =>   2
Atom   3C    basis set group =>   2
Atom   4H    basis set group =>   3
Atom   5C    basis set group =>   2
Atom   6H    basis set group =>   3
Atom   7C    basis set group =>   2
Atom   8H    basis set group =>   3
Atom   9H    basis set group =>   3
Atom  10C    basis set group =>   2
Atom  11C    basis set group =>   2
Atom  12C    basis set group =>   2
Atom  13H    basis set group =>   3
Atom  14C    basis set group =>   2
Atom  15H    basis set group =>   3
Atom  16C    basis set group =>   2
Atom  17H    basis set group =>   3
Atom  18H    basis set group =>   3
Atom  19Cl   basis set group =>   4
Atom  20H    basis set group =>   3
Atom  21H    basis set group =>   3
Atom  22H    basis set group =>   3
-------------------------
ECP PARAMETER INFORMATION
-------------------------

 Group 1, Type Zr ECP Def2-ECP (replacing 28 core electrons, lmax=3)

Atom   0Zr   ECP group =>   1



           ************************************************************
           *        Program running with 24 parallel MPI-processes    *
           *              working on a common directory               *
           ************************************************************
------------------------------------------------------------------------------
                           ORCA GTO INTEGRAL CALCULATION
                           -- RI-GTO INTEGRALS CHOSEN --
------------------------------------------------------------------------------

                         BASIS SET STATISTICS AND STARTUP INFO

Gaussian basis set:
 # of primitive gaussian shells          ...  371
 # of primitive gaussian functions       ...  877
 # of contracted shells                  ...  240
 # of contracted basis functions         ...  664
 Highest angular momentum                ...    4
 Maximum contraction depth               ...    7
Auxiliary gaussian basis set:
 # of primitive gaussian shells          ...  516
 # of primitive gaussian functions       ... 1604
 # of contracted shells                  ...  403
 # of contracted aux-basis functions     ... 1331
 Highest angular momentum                ...    6
 Maximum contraction depth               ...    5
Ratio of auxiliary to basis functions    ...  2.00
Integral package used                  ... LIBINT
 One Electron integrals                  
   ECP integrals                         ... done
 Ordering auxiliary basis shells         ... done
 Integral threshhold             Thresh  ...  1.000e-10
 Primitive cut-off               TCut    ...  1.000e-11
 Pre-screening matrix                    ... done
 Shell pair data                         ... 
 Ordering of the shell pairs             ... done (   0.005 sec) 26117 of 28920 pairs
 Determination of significant pairs      ... done (   0.000 sec)
 Creation of shell pair data             ... done (   0.003 sec)
 Storage of shell pair data              ... done (   0.023 sec)
 Shell pair data done in (   0.030 sec)
 Computing two index integrals           ... done
 Cholesky decomposition of the V-matrix  ... done


Timings:
 Total evaluation time                   ...   2.543 sec (  0.042 min)
 One electron matrix time                ...   2.034 sec (  0.034 min) = 80.0%
 Schwartz matrix evaluation time         ...   0.272 sec (  0.005 min) = 10.7%
 Two index repulsion integral time       ...   0.096 sec (  0.002 min) =  3.8%
 Cholesky decomposition of V             ...   0.082 sec (  0.001 min) =  3.2%
 Three index repulsion integral time     ...   0.000 sec (  0.000 min) =  0.0%



           ************************************************************
           *        Program running with 24 parallel MPI-processes    *
           *              working on a common directory               *
           ************************************************************
-------------------------------------------------------------------------------
                                 ORCA SCF
-------------------------------------------------------------------------------

------------
SCF SETTINGS
------------
Hamiltonian:
 Density Functional     Method          .... DFT(GTOs)
 Exchange Functional    Exchange        .... B88
   X-Alpha parameter    XAlpha          ....  0.666667
   Becke's b parameter  XBeta           ....  0.004200
 Correlation Functional Correlation     .... LYP
 LDA part of GGA corr.  LDAOpt          .... VWN-5
 Gradients option       PostSCFGGA      .... off
 Hybrid DFT is turned on
   Fraction HF Exchange ScalHFX         ....  0.710000
   Scaling of DF-GGA-X  ScalDFX         ....  0.290000
   Scaling of DF-GGA-C  ScalDFC         ....  0.540000
   Scaling of DF-LDA-C  ScalLDAC        ....  0.540000
   Perturbative correction              ....  1.000000
   Density functional embedding theory  .... OFF
 RI-approximation to the Coulomb term is turned on
   Number of auxiliary basis functions  .... 1331
   RI-JK (J+K treated both via RI)      .... on


General Settings:
 Integral files         IntName         .... TMB01_R1
 Hartree-Fock type      HFTyp           .... RHF
 Total Charge           Charge          ....    0
 Multiplicity           Mult            ....    1
 Number of Electrons    NEL             ....  100
 Basis Dimension        Dim             ....  664
 Nuclear Repulsion      ENuc            ....    842.2257055069 Eh

Convergence Acceleration:
 DIIS                   CNVDIIS         .... on
   Start iteration      DIISMaxIt       ....    12
   Startup error        DIISStart       ....  0.200000
   # of expansion vecs  DIISMaxEq       ....     5
   Bias factor          DIISBfac        ....   1.050
   Max. coefficient     DIISMaxC        ....  10.000
 Newton-Raphson         CNVNR           .... off
 SOSCF                  CNVSOSCF        .... off
 Level Shifting         CNVShift        .... on
   Level shift para.    LevelShift      ....    0.2500
   Turn off err/grad.   ShiftErr        ....    0.0010
 Zerner damping         CNVZerner       .... off
 Static damping         CNVDamp         .... on
   Fraction old density DampFac         ....    0.7000
   Max. Damping (<1)    DampMax         ....    0.9800
   Min. Damping (>=0)   DampMin         ....    0.0000
   Turn off err/grad.   DampErr         ....    0.1000
 Fernandez-Rico         CNVRico         .... off

SCF Procedure:
 Maximum # iterations   MaxIter         ....   125
 SCF integral mode      SCFMode         .... Direct
   Integral package                     .... LIBINT
 Reset frequency        DirectResetFreq ....    20
 Integral Threshold     Thresh          ....  1.000e-10 Eh
 Primitive CutOff       TCut            ....  1.000e-11 Eh

Convergence Tolerance:
 Convergence Check Mode ConvCheckMode   .... Total+1el-Energy
 Convergence forced     ConvForced      .... 0
 Energy Change          TolE            ....  1.000e-06 Eh
 1-El. energy change                    ....  1.000e-03 Eh
 DIIS Error             TolErr          ....  1.000e-06


Diagonalization of the overlap matrix:
Smallest eigenvalue                        ... 8.497e-07
Time for diagonalization                   ...    0.062 sec
Threshold for overlap eigenvalues          ... 1.000e-08
Number of eigenvalues below threshold      ... 0
Time for construction of square roots      ...    0.062 sec
Total time needed                          ...    0.126 sec

-------------------
DFT GRID GENERATION
-------------------

General Integration Accuracy     IntAcc      ...  4.670
Radial Grid Type                 RadialGrid  ... Gauss-Chebyshev
Angular Grid (max. acc.)         AngularGrid ... Lebedev-302
Angular grid pruning method      GridPruning ... 3 (G Style)
Weight generation scheme         WeightScheme... Becke
Basis function cutoff            BFCut       ...    1.0000e-10
Integration weight cutoff        WCut        ...    1.0000e-14
Grids for H and He will be reduced by one unit

# of grid points (after initial pruning)     ... 116874 (   0.0 sec)
# of grid points (after weights+screening)   ... 103126 (   0.1 sec)
nearest neighbour list constructed           ...    0.0 sec
Grid point re-assignment to atoms done       ...    0.0 sec
Grid point division into batches done        ...    0.3 sec
Reduced shell lists constructed in    0.7 sec

Total number of grid points                  ...   103126
Total number of batches                      ...     1623
Average number of points per batch           ...       63
Average number of grid points per atom       ...     4484
Average number of shells per batch           ...   186.09 (77.54%)
Average number of basis functions per batch  ...   541.57 (81.56%)
Average number of large shells per batch     ...   151.90 (81.63%)
Average number of large basis fcns per batch ...   433.23 (80.00%)
Average number of aux-shells per batch       ...   186.09 (46.18%)
Average number of aux functions per batch    ...   541.57 (40.69%)
Maximum spatial batch extension              ...   1.99,  2.06,  1.83 au
Average spatial batch extension              ...   0.05,  0.05,  0.05 au

Time for grid setup =    0.784 sec

------------------------------
INITIAL GUESS: MODEL POTENTIAL
------------------------------
Loading Hartree-Fock densities                     ... done
  calling /sw/apps/orca/orca_4_2_0_linux_x86-64_openmpi314/orca TMB01_R1_atom40.inp > TMB01_R1_atom40.out in order to generate an atomic fitting density for atom 0 (Zr with ECP) on-the-fly... 
    atom 0 (Zr), assumed electronic state with S=3: 1s2 2s2 2p6 3s2 3p6 4s2 3d10 4p6 4d2 5s2           ... done
Calculating cut-offs                               ... done
Setting up the integral package                    ... done
Initializing the effective Hamiltonian             ... done
Starting the Coulomb interaction                   ... done (   0.0 sec)
Reading the grid                                   ... done
Mapping shells                                     ... done
Starting the XC term evaluation                    ... done (   0.3 sec)
  promolecular density results
     # of electrons  =    127.994734097
     EX              =   -193.021006949
     EC              =     -0.672255287
     EX+EC           =   -193.693262235
Transforming the Hamiltonian                       ... done (   0.0 sec)
Diagonalizing the Hamiltonian                      ... done (   0.1 sec)
Back transforming the eigenvectors                 ... done (   0.0 sec)
Now organizing SCF variables                       ... done
                      ------------------
                      INITIAL GUESS DONE (   3.5 sec)
                      ------------------
--------------
SCF ITERATIONS
--------------
ITER       Energy         Delta-E        Max-DP      RMS-DP      [F,P]     Damp
  0   -890.4099819894   0.000000000000 0.61734721  0.00606026  0.9543630 0.7000
  1   -891.2815315529  -0.871549563550 0.49287929  0.00471850  0.6207777 0.7000
  2   -891.9377051807  -0.656173627796 0.32629720  0.00245379  0.2732889 0.7000
                               ***Turning on DIIS***
  3   -892.3870172398  -0.449312059116 0.42757225  0.00247717  0.1098450 0.7000
  4   -892.6987786328  -0.311761392993 0.36212963  0.00218253  0.1070074 0.7000
  5   -892.8711801336  -0.172401500798 0.26635174  0.00181260  0.1149875 0.7000
  6   -892.9963954901  -0.125215356464 0.18890683  0.00141338  0.1111496 0.7000
  7   -893.0798008186  -0.083405328559 0.47154031  0.00345994  0.0923328 0.0000
  8   -893.2696994616  -0.189898642938 0.03235355  0.00041509  0.0149241 0.0000
  9   -893.2710035941  -0.001304132575 0.01769813  0.00015481  0.0101980 0.0000
 10   -893.2713322778  -0.000328683686 0.00863114  0.00009614  0.0036766 0.0000
 11   -893.2713960567  -0.000063778831 0.00654116  0.00006051  0.0011915 0.0000
 12   -893.2714054509  -0.000009394195 0.00787761  0.00006157  0.0005566 0.0000
 13   -893.2714074069  -0.000001956052 0.00247345  0.00002826  0.0001103 0.0000
                 **** Energy Check signals convergence ****

               *****************************************************
               *                     SUCCESS                       *
               *           SCF CONVERGED AFTER  14 CYCLES          *
               *****************************************************


----------------
TOTAL SCF ENERGY
----------------

Total Energy       :         -893.27140757 Eh          -24307.15075 eV

Components:
Nuclear Repulsion  :          842.22570551 Eh           22918.12658 eV
Electronic Energy  :        -1735.49711307 Eh          -47225.27733 eV
One Electron Energy:        -2909.46788430 Eh          -79170.64609 eV
Two Electron Energy:         1173.97077122 Eh           31945.36876 eV

Virial components:
Potential Energy   :        -1753.49652131 Eh          -47715.06613 eV
Kinetic Energy     :          860.22511374 Eh           23407.91538 eV
Virial Ratio       :            2.03841587


DFT components:
N(Alpha)           :       50.000015146788 electrons
N(Beta)            :       50.000015146788 electrons
N(Total)           :      100.000030293575 electrons
E(X)               :      -25.811562665689 Eh       
E(C)               :       -1.867808202582 Eh       
E(XC)              :      -27.679370868270 Eh       
DFET-embed. en.    :        0.000000000000 Eh       

---------------
SCF CONVERGENCE
---------------

  Last Energy change         ...   -1.6104e-07  Tolerance :   1.0000e-06
  Last MAX-Density change    ...    3.5239e-03  Tolerance :   1.0000e-05
  Last RMS-Density change    ...    3.7021e-05  Tolerance :   1.0000e-06
  Last DIIS Error            ...    2.7961e-05  Tolerance :   1.0000e-06

             **** THE GBW FILE WAS UPDATED (TMB01_R1.gbw) ****
             **** DENSITY FILE WAS UPDATED (TMB01_R1.scfp) ****
             **** ENERGY FILE WAS UPDATED (TMB01_R1.en.tmp) ****
             **** THE GBW FILE WAS UPDATED (TMB01_R1.gbw) ****
             **** DENSITY FILE WAS UPDATED (TMB01_R1.scfp) ****
----------------
ORBITAL ENERGIES
----------------

  NO   OCC          E(Eh)            E(eV) 
   0   2.0000    -103.586868     -2818.7420 
   1   2.0000     -10.875104      -295.9266 
   2   2.0000     -10.874296      -295.9046 
   3   2.0000     -10.874133      -295.9002 
   4   2.0000     -10.874004      -295.8967 
   5   2.0000     -10.872985      -295.8690 
   6   2.0000     -10.872685      -295.8608 
   7   2.0000     -10.871151      -295.8191 
   8   2.0000     -10.870752      -295.8082 
   9   2.0000     -10.866393      -295.6896 
  10   2.0000     -10.866169      -295.6835 
  11   2.0000     -10.104638      -274.9612 
  12   2.0000      -7.676368      -208.8846 
  13   2.0000      -7.675837      -208.8701 
  14   2.0000      -7.675328      -208.8563 
  15   2.0000      -2.405366       -65.4533 
  16   2.0000      -1.448540       -39.4168 
  17   2.0000      -1.443673       -39.2843 
  18   2.0000      -1.435884       -39.0724 
  19   2.0000      -1.094954       -29.7952 
  20   2.0000      -1.082145       -29.4467 
  21   2.0000      -0.927398       -25.2358 
  22   2.0000      -0.895913       -24.3790 
  23   2.0000      -0.895164       -24.3586 
  24   2.0000      -0.893844       -24.3227 
  25   2.0000      -0.890410       -24.2293 
  26   2.0000      -0.697263       -18.9735 
  27   2.0000      -0.691979       -18.8297 
  28   2.0000      -0.687927       -18.7195 
  29   2.0000      -0.687411       -18.7054 
  30   2.0000      -0.670159       -18.2360 
  31   2.0000      -0.662257       -18.0209 
  32   2.0000      -0.526530       -14.3276 
  33   2.0000      -0.521320       -14.1858 
  34   2.0000      -0.519980       -14.1494 
  35   2.0000      -0.518022       -14.0961 
  36   2.0000      -0.515191       -14.0191 
  37   2.0000      -0.498029       -13.5521 
  38   2.0000      -0.495777       -13.4908 
  39   2.0000      -0.493317       -13.4238 
  40   2.0000      -0.492376       -13.3982 
  41   2.0000      -0.482762       -13.1366 
  42   2.0000      -0.411640       -11.2013 
  43   2.0000      -0.392633       -10.6841 
  44   2.0000      -0.381980       -10.3942 
  45   2.0000      -0.355549        -9.6750 
  46   2.0000      -0.339116        -9.2278 
  47   2.0000      -0.332266        -9.0414 
  48   2.0000      -0.315321        -8.5803 
  49   2.0000      -0.303289        -8.2529 
  50   0.0000       0.022028         0.5994 
  51   0.0000       0.035837         0.9752 
  52   0.0000       0.044529         1.2117 
  53   0.0000       0.049574         1.3490 
  54   0.0000       0.053253         1.4491 
  55   0.0000       0.067914         1.8480 
  56   0.0000       0.070335         1.9139 
  57   0.0000       0.072001         1.9593 
  58   0.0000       0.073490         1.9998 
  59   0.0000       0.076559         2.0833 
  60   0.0000       0.083888         2.2827 
  61   0.0000       0.085201         2.3184 
  62   0.0000       0.092079         2.5056 
  63   0.0000       0.104767         2.8509 
  64   0.0000       0.106543         2.8992 
  65   0.0000       0.110020         2.9938 
  66   0.0000       0.112255         3.0546 
  67   0.0000       0.115204         3.1349 
  68   0.0000       0.119691         3.2570 
  69   0.0000       0.121811         3.3146 
  70   0.0000       0.130592         3.5536 
  71   0.0000       0.133067         3.6209 
  72   0.0000       0.140062         3.8113 
  73   0.0000       0.148381         4.0376 
  74   0.0000       0.152543         4.1509 
  75   0.0000       0.163713         4.4549 
  76   0.0000       0.166230         4.5234 
  77   0.0000       0.173466         4.7203 
  78   0.0000       0.175775         4.7831 
  79   0.0000       0.179534         4.8854 
  80   0.0000       0.186122         5.0646 
  81   0.0000       0.191678         5.2158 
  82   0.0000       0.197677         5.3791 
  83   0.0000       0.199226         5.4212 
  84   0.0000       0.206309         5.6140 
  85   0.0000       0.217725         5.9246 
  86   0.0000       0.220593         6.0026 
  87   0.0000       0.221959         6.0398 
  88   0.0000       0.224923         6.1205 
  89   0.0000       0.230197         6.2640 
  90   0.0000       0.233653         6.3580 
  91   0.0000       0.238283         6.4840 
  92   0.0000       0.246029         6.6948 
  93   0.0000       0.250825         6.8253 
  94   0.0000       0.251256         6.8370 
  95   0.0000       0.256643         6.9836 
  96   0.0000       0.268917         7.3176 
  97   0.0000       0.270832         7.3697 
  98   0.0000       0.285861         7.7787 
  99   0.0000       0.289842         7.8870 
 100   0.0000       0.299990         8.1631 
 101   0.0000       0.300310         8.1718 
 102   0.0000       0.301080         8.1928 
 103   0.0000       0.303274         8.2525 
 104   0.0000       0.304403         8.2832 
 105   0.0000       0.308383         8.3915 
 106   0.0000       0.317022         8.6266 
 107   0.0000       0.317972         8.6525 
 108   0.0000       0.319350         8.6900 
 109   0.0000       0.322459         8.7746 
 110   0.0000       0.326826         8.8934 
 111   0.0000       0.330731         8.9997 
 112   0.0000       0.335010         9.1161 
 113   0.0000       0.336861         9.1664 
 114   0.0000       0.341472         9.2919 
 115   0.0000       0.343138         9.3373 
 116   0.0000       0.347155         9.4466 
 117   0.0000       0.349397         9.5076 
 118   0.0000       0.351913         9.5760 
 119   0.0000       0.355300         9.6682 
 120   0.0000       0.358533         9.7562 
 121   0.0000       0.360857         9.8194 
 122   0.0000       0.365718         9.9517 
 123   0.0000       0.367381         9.9969 
 124   0.0000       0.369697        10.0600 
 125   0.0000       0.374280        10.1847 
 126   0.0000       0.382121        10.3980 
 127   0.0000       0.388927        10.5832 
 128   0.0000       0.397218        10.8089 
 129   0.0000       0.400335        10.8937 
 130   0.0000       0.403034        10.9671 
 131   0.0000       0.410575        11.1723 
 132   0.0000       0.412268        11.2184 
 133   0.0000       0.419565        11.4169 
 134   0.0000       0.427861        11.6427 
 135   0.0000       0.430780        11.7221 
 136   0.0000       0.437025        11.8921 
 137   0.0000       0.439101        11.9486 
 138   0.0000       0.441129        12.0037 
 139   0.0000       0.442768        12.0483 
 140   0.0000       0.443501        12.0683 
 141   0.0000       0.446824        12.1587 
 142   0.0000       0.449856        12.2412 
 143   0.0000       0.452114        12.3026 
 144   0.0000       0.459069        12.4919 
 145   0.0000       0.461787        12.5659 
 146   0.0000       0.464902        12.6506 
 147   0.0000       0.469536        12.7767 
 148   0.0000       0.474187        12.9033 
 149   0.0000       0.477573        12.9954 
 150   0.0000       0.479948        13.0601 
 151   0.0000       0.487061        13.2536 
 152   0.0000       0.490531        13.3480 
 153   0.0000       0.493955        13.4412 
 154   0.0000       0.502478        13.6731 
 155   0.0000       0.505646        13.7593 
 156   0.0000       0.507085        13.7985 
 157   0.0000       0.512068        13.9341 
 158   0.0000       0.523832        14.2542 
 159   0.0000       0.524466        14.2714 
 160   0.0000       0.533040        14.5047 
 161   0.0000       0.538453        14.6521 
 162   0.0000       0.542475        14.7615 
 163   0.0000       0.545455        14.8426 
 164   0.0000       0.550555        14.9814 
 165   0.0000       0.557321        15.1655 
 166   0.0000       0.558560        15.1992 
 167   0.0000       0.564803        15.3691 
 168   0.0000       0.569334        15.4924 
 169   0.0000       0.573841        15.6150 
 170   0.0000       0.577585        15.7169 
 171   0.0000       0.586031        15.9467 
 172   0.0000       0.591028        16.0827 
 173   0.0000       0.593194        16.1416 
 174   0.0000       0.600807        16.3488 
 175   0.0000       0.602326        16.3901 
 176   0.0000       0.605929        16.4882 
 177   0.0000       0.606820        16.5124 
 178   0.0000       0.612027        16.6541 
 179   0.0000       0.623997        16.9798 
 180   0.0000       0.625486        17.0203 
 181   0.0000       0.638424        17.3724 
 182   0.0000       0.646566        17.5940 
 183   0.0000       0.653106        17.7719 
 184   0.0000       0.660334        17.9686 
 185   0.0000       0.663137        18.0449 
 186   0.0000       0.670924        18.2568 
 187   0.0000       0.672147        18.2900 
 188   0.0000       0.677895        18.4465 
 189   0.0000       0.680414        18.5150 
 190   0.0000       0.690006        18.7760 
 191   0.0000       0.691997        18.8302 
 192   0.0000       0.696768        18.9600 
 193   0.0000       0.702480        19.1154 
 194   0.0000       0.711221        19.3533 
 195   0.0000       0.716685        19.5020 
 196   0.0000       0.721155        19.6236 
 197   0.0000       0.723971        19.7002 
 198   0.0000       0.729938        19.8626 
 199   0.0000       0.733292        19.9539 
 200   0.0000       0.738885        20.1061 
 201   0.0000       0.739554        20.1243 
 202   0.0000       0.742307        20.1992 
 203   0.0000       0.747506        20.3407 
 204   0.0000       0.750979        20.4352 
 205   0.0000       0.757819        20.6213 
 206   0.0000       0.763131        20.7659 
 207   0.0000       0.765571        20.8322 
 208   0.0000       0.766782        20.8652 
 209   0.0000       0.769186        20.9306 
 210   0.0000       0.778571        21.1860 
 211   0.0000       0.780045        21.2261 
 212   0.0000       0.783134        21.3102 
 213   0.0000       0.786762        21.4089 
 214   0.0000       0.791040        21.5253 
 215   0.0000       0.801082        21.7986 
 216   0.0000       0.807477        21.9726 
 217   0.0000       0.816426        22.2161 
 218   0.0000       0.817945        22.2574 
 219   0.0000       0.821762        22.3613 
 220   0.0000       0.825433        22.4612 
 221   0.0000       0.827561        22.5191 
 222   0.0000       0.831869        22.6363 
 223   0.0000       0.833993        22.6941 
 224   0.0000       0.836606        22.7652 
 225   0.0000       0.837384        22.7864 
 226   0.0000       0.838538        22.8178 
 227   0.0000       0.842418        22.9234 
 228   0.0000       0.849166        23.1070 
 229   0.0000       0.854271        23.2459 
 230   0.0000       0.862270        23.4636 
 231   0.0000       0.871371        23.7112 
 232   0.0000       0.880695        23.9649 
 233   0.0000       0.886714        24.1287 
 234   0.0000       0.890501        24.2318 
 235   0.0000       0.900165        24.4947 
 236   0.0000       0.901352        24.5270 
 237   0.0000       0.903142        24.5757 
 238   0.0000       0.907890        24.7049 
 239   0.0000       0.910005        24.7625 
 240   0.0000       0.919144        25.0112 
 241   0.0000       0.929924        25.3045 
 242   0.0000       0.936175        25.4746 
 243   0.0000       0.952946        25.9310 
 244   0.0000       0.963348        26.2140 
 245   0.0000       0.965979        26.2856 
 246   0.0000       0.985800        26.8250 
 247   0.0000       0.988046        26.8861 
 248   0.0000       0.992274        27.0011 
 249   0.0000       1.003724        27.3127 
 250   0.0000       1.013847        27.5882 
 251   0.0000       1.027520        27.9602 
 252   0.0000       1.033359        28.1191 
 253   0.0000       1.051646        28.6167 
 254   0.0000       1.052333        28.6354 
 255   0.0000       1.056969        28.7616 
 256   0.0000       1.068988        29.0886 
 257   0.0000       1.074356        29.2347 
 258   0.0000       1.084415        29.5084 
 259   0.0000       1.102756        30.0075 
 260   0.0000       1.112362        30.2689 
 261   0.0000       1.116766        30.3887 
 262   0.0000       1.128187        30.6995 
 263   0.0000       1.139901        31.0183 
 264   0.0000       1.151620        31.3372 
 265   0.0000       1.162757        31.6402 
 266   0.0000       1.176695        32.0195 
 267   0.0000       1.181842        32.1596 
 268   0.0000       1.197585        32.5879 
 269   0.0000       1.199981        32.6531 
 270   0.0000       1.232431        33.5362 
 271   0.0000       1.239254        33.7218 
 272   0.0000       1.247607        33.9491 
 273   0.0000       1.254279        34.1307 
 274   0.0000       1.262322        34.3495 
 275   0.0000       1.270792        34.5800 
 276   0.0000       1.290152        35.1068 
 277   0.0000       1.294965        35.2378 
 278   0.0000       1.309076        35.6218 
 279   0.0000       1.315747        35.8033 
 280   0.0000       1.328889        36.1609 
 281   0.0000       1.337205        36.3872 
 282   0.0000       1.345819        36.6216 
 283   0.0000       1.347222        36.6598 
 284   0.0000       1.364285        37.1241 
 285   0.0000       1.374437        37.4003 
 286   0.0000       1.391088        37.8534 
 287   0.0000       1.401005        38.1233 
 288   0.0000       1.405995        38.2591 
 289   0.0000       1.418332        38.5948 
 290   0.0000       1.438220        39.1359 
 291   0.0000       1.448051        39.4035 
 292   0.0000       1.453410        39.5493 
 293   0.0000       1.459094        39.7040 
 294   0.0000       1.468316        39.9549 
 295   0.0000       1.478388        40.2290 
 296   0.0000       1.484086        40.3840 
 297   0.0000       1.495158        40.6853 
 298   0.0000       1.503426        40.9103 
 299   0.0000       1.507019        41.0081 
 300   0.0000       1.514091        41.2005 
 301   0.0000       1.517440        41.2916 
 302   0.0000       1.534128        41.7458 
 303   0.0000       1.538474        41.8640 
 304   0.0000       1.539584        41.8942 
 305   0.0000       1.553168        42.2638 
 306   0.0000       1.560277        42.4573 
 307   0.0000       1.563295        42.5394 
 308   0.0000       1.571723        42.7688 
 309   0.0000       1.575507        42.8717 
 310   0.0000       1.577588        42.9283 
 311   0.0000       1.580455        43.0064 
 312   0.0000       1.588805        43.2336 
 313   0.0000       1.592987        43.3474 
 314   0.0000       1.601802        43.5872 
 315   0.0000       1.607368        43.7387 
 316   0.0000       1.611561        43.8528 
 317   0.0000       1.620472        44.0953 
 318   0.0000       1.627934        44.2983 
 319   0.0000       1.634126        44.4668 
 320   0.0000       1.636353        44.5274 
 321   0.0000       1.645336        44.7719 
 322   0.0000       1.651386        44.9365 
 323   0.0000       1.653597        44.9967 
 324   0.0000       1.661025        45.1988 
 325   0.0000       1.668131        45.3922 
 326   0.0000       1.680003        45.7152 
 327   0.0000       1.686707        45.8976 
 328   0.0000       1.704372        46.3783 
 329   0.0000       1.719101        46.7791 
 330   0.0000       1.721491        46.8442 
 331   0.0000       1.734949        47.2104 
 332   0.0000       1.745725        47.5036 
 333   0.0000       1.768982        48.1364 
 334   0.0000       1.780988        48.4631 
 335   0.0000       1.786805        48.6214 
 336   0.0000       1.809139        49.2292 
 337   0.0000       1.814428        49.3731 
 338   0.0000       1.815516        49.4027 
 339   0.0000       1.826886        49.7121 
 340   0.0000       1.866414        50.7877 
 341   0.0000       1.902617        51.7728 
 342   0.0000       1.905024        51.8384 
 343   0.0000       1.926527        52.4235 
 344   0.0000       1.933464        52.6122 
 345   0.0000       1.972332        53.6699 
 346   0.0000       1.975326        53.7513 
 347   0.0000       1.988707        54.1155 
 348   0.0000       1.994682        54.2781 
 349   0.0000       1.997558        54.3563 
 350   0.0000       2.001392        54.4607 
 351   0.0000       2.004495        54.5451 
 352   0.0000       2.016871        54.8819 
 353   0.0000       2.018314        54.9211 
 354   0.0000       2.025352        55.1126 
 355   0.0000       2.029480        55.2250 
 356   0.0000       2.034456        55.3604 
 357   0.0000       2.040697        55.5302 
 358   0.0000       2.054174        55.8969 
 359   0.0000       2.059923        56.0534 
 360   0.0000       2.066642        56.2362 
 361   0.0000       2.071318        56.3634 
 362   0.0000       2.080406        56.6107 
 363   0.0000       2.107405        57.3454 
 364   0.0000       2.121174        57.7201 
 365   0.0000       2.138677        58.1964 
 366   0.0000       2.150456        58.5169 
 367   0.0000       2.152571        58.5744 
 368   0.0000       2.167612        58.9837 
 369   0.0000       2.175291        59.1927 
 370   0.0000       2.183879        59.4264 
 371   0.0000       2.186496        59.4976 
 372   0.0000       2.229626        60.6712 
 373   0.0000       2.236984        60.8714 
 374   0.0000       2.246387        61.1273 
 375   0.0000       2.257343        61.4254 
 376   0.0000       2.262224        61.5583 
 377   0.0000       2.269552        61.7577 
 378   0.0000       2.277349        61.9698 
 379   0.0000       2.289680        62.3054 
 380   0.0000       2.304282        62.7027 
 381   0.0000       2.324246        63.2460 
 382   0.0000       2.332214        63.4628 
 383   0.0000       2.348642        63.9098 
 384   0.0000       2.358386        64.1750 
 385   0.0000       2.368874        64.4603 
 386   0.0000       2.385099        64.9018 
 387   0.0000       2.401006        65.3347 
 388   0.0000       2.416814        65.7649 
 389   0.0000       2.425357        65.9973 
 390   0.0000       2.431449        66.1631 
 391   0.0000       2.460205        66.9456 
 392   0.0000       2.468904        67.1823 
 393   0.0000       2.521391        68.6105 
 394   0.0000       2.525673        68.7271 
 395   0.0000       2.541607        69.1606 
 396   0.0000       2.566901        69.8489 
 397   0.0000       2.585337        70.3506 
 398   0.0000       2.594038        70.5874 
 399   0.0000       2.603072        70.8332 
 400   0.0000       2.616313        71.1935 
 401   0.0000       2.627722        71.5040 
 402   0.0000       2.653517        72.2059 
 403   0.0000       2.654890        72.2432 
 404   0.0000       2.662065        72.4385 
 405   0.0000       2.678627        72.8892 
 406   0.0000       2.683280        73.0158 
 407   0.0000       2.751214        74.8643 
 408   0.0000       2.775282        75.5193 
 409   0.0000       2.791166        75.9515 
 410   0.0000       2.792652        75.9919 
 411   0.0000       2.803259        76.2805 
 412   0.0000       2.810113        76.4671 
 413   0.0000       2.831214        77.0413 
 414   0.0000       2.834523        77.1313 
 415   0.0000       2.841220        77.3135 
 416   0.0000       2.858756        77.7907 
 417   0.0000       2.862943        77.9046 
 418   0.0000       2.876483        78.2731 
 419   0.0000       2.892906        78.7200 
 420   0.0000       2.904873        79.0456 
 421   0.0000       2.915413        79.3324 
 422   0.0000       2.932199        79.7892 
 423   0.0000       2.941517        80.0428 
 424   0.0000       2.962907        80.6248 
 425   0.0000       2.984213        81.2046 
 426   0.0000       2.993541        81.4584 
 427   0.0000       3.004065        81.7448 
 428   0.0000       3.015211        82.0481 
 429   0.0000       3.035204        82.5921 
 430   0.0000       3.053129        83.0799 
 431   0.0000       3.068884        83.5086 
 432   0.0000       3.073236        83.6270 
 433   0.0000       3.080209        83.8167 
 434   0.0000       3.081751        83.8587 
 435   0.0000       3.084951        83.9458 
 436   0.0000       3.094740        84.2122 
 437   0.0000       3.098269        84.3082 
 438   0.0000       3.127372        85.1001 
 439   0.0000       3.135824        85.3301 
 440   0.0000       3.140008        85.4440 
 441   0.0000       3.154220        85.8307 
 442   0.0000       3.182740        86.6068 
 443   0.0000       3.203291        87.1660 
 444   0.0000       3.218673        87.5846 
 445   0.0000       3.249266        88.4170 
 446   0.0000       3.261640        88.7537 
 447   0.0000       3.269304        88.9623 
 448   0.0000       3.295027        89.6622 
 449   0.0000       3.312197        90.1295 
 450   0.0000       3.318266        90.2946 
 451   0.0000       3.321694        90.3879 
 452   0.0000       3.326009        90.5053 
 453   0.0000       3.343394        90.9784 
 454   0.0000       3.350066        91.1599 
 455   0.0000       3.363296        91.5199 
 456   0.0000       3.380745        91.9947 
 457   0.0000       3.388723        92.2118 
 458   0.0000       3.414241        92.9062 
 459   0.0000       3.428995        93.3077 
 460   0.0000       3.485914        94.8565 
 461   0.0000       3.499294        95.2206 
 462   0.0000       3.503004        95.3216 
 463   0.0000       3.509485        95.4979 
 464   0.0000       3.525084        95.9224 
 465   0.0000       3.533173        96.1425 
 466   0.0000       3.536107        96.2224 
 467   0.0000       3.551542        96.6424 
 468   0.0000       3.557001        96.7909 
 469   0.0000       3.570495        97.1581 
 470   0.0000       3.577189        97.3403 
 471   0.0000       3.581898        97.4684 
 472   0.0000       3.586638        97.5974 
 473   0.0000       3.595241        97.8315 
 474   0.0000       3.600866        97.9846 
 475   0.0000       3.610827        98.2556 
 476   0.0000       3.612274        98.2950 
 477   0.0000       3.620327        98.5141 
 478   0.0000       3.635910        98.9381 
 479   0.0000       3.640403        99.0604 
 480   0.0000       3.646931        99.2380 
 481   0.0000       3.651336        99.3579 
 482   0.0000       3.671138        99.8968 
 483   0.0000       3.677757       100.0769 
 484   0.0000       3.687631       100.3456 
 485   0.0000       3.692362       100.4743 
 486   0.0000       3.702159       100.7409 
 487   0.0000       3.708387       100.9104 
 488   0.0000       3.715508       101.1041 
 489   0.0000       3.730307       101.5068 
 490   0.0000       3.731755       101.5462 
 491   0.0000       3.738453       101.7285 
 492   0.0000       3.741190       101.8030 
 493   0.0000       3.746389       101.9444 
 494   0.0000       3.755716       102.1982 
 495   0.0000       3.759240       102.2941 
 496   0.0000       3.762172       102.3739 
 497   0.0000       3.775372       102.7331 
 498   0.0000       3.782309       102.9219 
 499   0.0000       3.795486       103.2804 
 500   0.0000       3.801427       103.4421 
 501   0.0000       3.809739       103.6683 
 502   0.0000       3.815164       103.8159 
 503   0.0000       3.820721       103.9671 
 504   0.0000       3.824251       104.0632 
 505   0.0000       3.843156       104.5776 
 506   0.0000       3.853376       104.8557 
 507   0.0000       3.858392       104.9922 
 508   0.0000       3.863999       105.1448 
 509   0.0000       3.867598       105.2427 
 510   0.0000       3.877404       105.5095 
 511   0.0000       3.883691       105.6806 
 512   0.0000       3.886740       105.7636 
 513   0.0000       3.899174       106.1019 
 514   0.0000       3.910879       106.4204 
 515   0.0000       3.913787       106.4996 
 516   0.0000       3.921284       106.7036 
 517   0.0000       3.927829       106.8817 
 518   0.0000       3.939905       107.2103 
 519   0.0000       3.959620       107.7467 
 520   0.0000       3.960980       107.7838 
 521   0.0000       3.967032       107.9484 
 522   0.0000       4.004786       108.9758 
 523   0.0000       4.017509       109.3220 
 524   0.0000       4.047182       110.1294 
 525   0.0000       4.066072       110.6435 
 526   0.0000       4.080341       111.0317 
 527   0.0000       4.090914       111.3194 
 528   0.0000       4.100312       111.5752 
 529   0.0000       4.105432       111.7145 
 530   0.0000       4.124195       112.2251 
 531   0.0000       4.135357       112.5288 
 532   0.0000       4.141217       112.6882 
 533   0.0000       4.148347       112.8823 
 534   0.0000       4.155401       113.0742 
 535   0.0000       4.157039       113.1188 
 536   0.0000       4.160391       113.2100 
 537   0.0000       4.176276       113.6422 
 538   0.0000       4.225227       114.9743 
 539   0.0000       4.250887       115.6725 
 540   0.0000       4.253227       115.7362 
 541   0.0000       4.273875       116.2980 
 542   0.0000       4.276975       116.3824 
 543   0.0000       4.300641       117.0264 
 544   0.0000       4.346325       118.2695 
 545   0.0000       4.348638       118.3325 
 546   0.0000       4.368930       118.8846 
 547   0.0000       4.381660       119.2310 
 548   0.0000       4.393676       119.5580 
 549   0.0000       4.401862       119.7807 
 550   0.0000       4.415026       120.1390 
 551   0.0000       4.441416       120.8571 
 552   0.0000       4.445306       120.9629 
 553   0.0000       4.447164       121.0135 
 554   0.0000       4.457320       121.2898 
 555   0.0000       4.465195       121.5041 
 556   0.0000       4.476788       121.8196 
 557   0.0000       4.487049       122.0988 
 558   0.0000       4.491938       122.2319 
 559   0.0000       4.498928       122.4221 
 560   0.0000       4.504764       122.5809 
 561   0.0000       4.508685       122.6876 
 562   0.0000       4.516403       122.8976 
 563   0.0000       4.517153       122.9180 
 564   0.0000       4.525513       123.1455 
 565   0.0000       4.526581       123.1745 
 566   0.0000       4.555217       123.9538 
 567   0.0000       4.564376       124.2030 
 568   0.0000       4.572980       124.4371 
 569   0.0000       4.584772       124.7580 
 570   0.0000       4.614808       125.5753 
 571   0.0000       4.624607       125.8420 
 572   0.0000       4.635594       126.1409 
 573   0.0000       4.657025       126.7241 
 574   0.0000       4.668089       127.0252 
 575   0.0000       4.692043       127.6770 
 576   0.0000       4.698429       127.8508 
 577   0.0000       4.710310       128.1741 
 578   0.0000       4.715677       128.3201 
 579   0.0000       4.724664       128.5646 
 580   0.0000       4.736116       128.8763 
 581   0.0000       4.745230       129.1243 
 582   0.0000       4.754542       129.3777 
 583   0.0000       4.769438       129.7830 
 584   0.0000       4.773512       129.8939 
 585   0.0000       4.794227       130.4576 
 586   0.0000       4.808030       130.8331 
 587   0.0000       4.854250       132.0909 
 588   0.0000       4.878435       132.7490 
 589   0.0000       4.965774       135.1256 
 590   0.0000       4.984349       135.6310 
 591   0.0000       4.998891       136.0267 
 592   0.0000       5.043609       137.2436 
 593   0.0000       5.047096       137.3385 
 594   0.0000       5.056087       137.5831 
 595   0.0000       5.067606       137.8966 
 596   0.0000       5.071263       137.9961 
 597   0.0000       5.094410       138.6259 
 598   0.0000       5.117598       139.2569 
 599   0.0000       5.125644       139.4759 
 600   0.0000       5.135735       139.7505 
 601   0.0000       5.153106       140.2232 
 602   0.0000       5.154598       140.2638 
 603   0.0000       5.182477       141.0224 
 604   0.0000       5.184038       141.0648 
 605   0.0000       5.200263       141.5064 
 606   0.0000       5.204528       141.6224 
 607   0.0000       5.216367       141.9446 
 608   0.0000       5.230996       142.3426 
 609   0.0000       5.486361       149.2915 
 610   0.0000       5.491251       149.4245 
 611   0.0000       5.498106       149.6111 
 612   0.0000       5.508865       149.9038 
 613   0.0000       5.511688       149.9807 
 614   0.0000       5.519354       150.1892 
 615   0.0000       5.520801       150.2286 
 616   0.0000       5.524414       150.3270 
 617   0.0000       5.564587       151.4201 
 618   0.0000       5.576511       151.7446 
 619   0.0000       5.585895       151.9999 
 620   0.0000       5.593726       152.2130 
 621   0.0000       5.612027       152.7110 
 622   0.0000       5.618920       152.8986 
 623   0.0000       5.631221       153.2333 
 624   0.0000       5.632743       153.2747 
 625   0.0000       5.635707       153.3554 
 626   0.0000       5.659467       154.0019 
 627   0.0000       5.788103       157.5023 
 628   0.0000       5.839819       158.9095 
 629   0.0000       5.986698       162.9063 
 630   0.0000       5.995708       163.1515 
 631   0.0000       6.002908       163.3474 
 632   0.0000       6.022770       163.8879 
 633   0.0000       6.227048       169.4466 
 634   0.0000       6.233950       169.6344 
 635   0.0000       6.239572       169.7874 
 636   0.0000       6.253211       170.1585 
 637   0.0000       6.255033       170.2081 
 638   0.0000       6.260326       170.3521 
 639   0.0000       6.276540       170.7933 
 640   0.0000       6.276966       170.8049 
 641   0.0000       6.871419       186.9808 
 642   0.0000       6.878054       187.1614 
 643   0.0000       8.630550       234.8492 
 644   0.0000       8.640319       235.1150 
 645   0.0000       8.696353       236.6398 
 646   0.0000       8.765573       238.5234 
 647   0.0000       8.782143       238.9743 
 648   0.0000      11.539988       314.0190 
 649   0.0000      11.626179       316.3644 
 650   0.0000      11.876992       323.1894 
 651   0.0000      21.390259       582.0585 
 652   0.0000      23.868161       649.4857 
 653   0.0000      23.911105       650.6542 
 654   0.0000      24.105370       655.9405 
 655   0.0000      24.113668       656.1663 
 656   0.0000      24.127531       656.5435 
 657   0.0000      24.142171       656.9419 
 658   0.0000      24.465082       665.7287 
 659   0.0000      24.479994       666.1345 
 660   0.0000      24.507830       666.8920 
 661   0.0000      24.530040       667.4963 
 662   0.0000      26.911023       732.2862 
 663   0.0000      72.225753      1965.3627 

                    ********************************
                    * MULLIKEN POPULATION ANALYSIS *
                    ********************************

-----------------------
MULLIKEN ATOMIC CHARGES
-----------------------
   0 Zr:    0.332733
   1 C :    0.162656
   2 C :    0.123777
   3 C :    0.013112
   4 H :    0.021357
   5 C :   -0.011205
   6 H :   -0.015365
   7 C :    0.015122
   8 H :   -0.000249
   9 H :   -0.045398
  10 C :    0.200301
  11 C :    0.088897
  12 C :   -0.046080
  13 H :   -0.039370
  14 C :   -0.022017
  15 H :    0.000959
  16 C :    0.062796
  17 H :   -0.023707
  18 H :   -0.037996
  19 Cl:   -0.594615
  20 H :   -0.217946
  21 H :   -0.016449
  22 H :    0.048688
Sum of atomic charges:    0.0000000

--------------------------------
MULLIKEN REDUCED ORBITAL CHARGES
--------------------------------
  0 Zrs       :     2.558952  s :     2.558952
      pz      :     2.211553  p :     6.866615
      px      :     2.436320
      py      :     2.218742
      dz2     :     0.627944  d :     1.916298
      dxz     :     0.461014
      dyz     :     0.170446
      dx2y2   :     0.385811
      dxy     :     0.271083
      f0      :     0.047123  f :     0.281267
      f+1     :     0.024561
      f-1     :     0.020153
      f+2     :     0.040042
      f-2     :     0.025684
      f+3     :     0.084033
      f-3     :     0.039671
      g0      :     0.003341  g :     0.044135
      g+1     :     0.004049
      g-1     :     0.003307
      g+2     :     0.004248
      g-2     :     0.002675
      g+3     :     0.004420
      g-3     :     0.005523
      g+4     :     0.009652
      g-4     :     0.006919
  1 C s       :     2.984963  s :     2.984963
      pz      :     0.987586  p :     2.790429
      px      :     0.931180
      py      :     0.871663
      dz2     :     0.003495  d :     0.053552
      dxz     :    -0.014721
      dyz     :     0.031929
      dx2y2   :     0.018290
      dxy     :     0.014559
      f0      :     0.001337  f :     0.008399
      f+1     :     0.000671
      f-1     :     0.002028
      f+2     :     0.001408
      f-2     :     0.001284
      f+3     :     0.000851
      f-3     :     0.000819
  2 C s       :     2.974517  s :     2.974517
      pz      :     0.866999  p :     2.882493
      px      :     0.923458
      py      :     1.092036
      dz2     :     0.019167  d :     0.011026
      dxz     :     0.039382
      dyz     :    -0.031787
      dx2y2   :    -0.018482
      dxy     :     0.002745
      f0      :     0.001485  f :     0.008188
      f+1     :     0.001014
      f-1     :     0.001507
      f+2     :     0.001149
      f-2     :     0.001378
      f+3     :     0.000839
      f-3     :     0.000815
  3 C s       :     3.031511  s :     3.031511
      pz      :     0.934865  p :     2.904218
      px      :     1.061151
      py      :     0.908202
      dz2     :     0.001797  d :     0.042963
      dxz     :     0.011943
      dyz     :     0.027537
      dx2y2   :     0.014529
      dxy     :    -0.012844
      f0      :     0.001397  f :     0.008197
      f+1     :     0.000921
      f-1     :     0.002053
      f+2     :     0.001098
      f-2     :     0.000947
      f+3     :     0.000925
      f-3     :     0.000856
  4 H s       :     0.933070  s :     0.933070
      pz      :     0.004713  p :     0.043427
      px      :     0.004556
      py      :     0.034158
      dz2     :     0.000228  d :     0.002146
      dxz     :     0.000106
      dyz     :     0.000651
      dx2y2   :     0.000599
      dxy     :     0.000561
  5 C s       :     3.025613  s :     3.025613
      pz      :     1.013942  p :     2.926243
      px      :     0.940418
      py      :     0.971883
      dz2     :    -0.017018  d :     0.051131
      dxz     :     0.029830
      dyz     :     0.004460
      dx2y2   :     0.004536
      dxy     :     0.029322
      f0      :     0.001629  f :     0.008218
      f+1     :     0.001384
      f-1     :     0.001382
      f+2     :     0.000906
      f-2     :     0.000987
      f+3     :     0.000915
      f-3     :     0.001016
  6 H s       :     0.942679  s :     0.942679
      pz      :     0.008525  p :     0.070583
      px      :     0.055409
      py      :     0.006650
      dz2     :     0.000352  d :     0.002103
      dxz     :     0.000208
      dyz     :     0.000480
      dx2y2   :     0.000483
      dxy     :     0.000579
  7 C s       :     3.061139  s :     3.061139
      pz      :     0.992884  p :     2.877472
      px      :     0.971331
      py      :     0.913257
      dz2     :     0.003352  d :     0.037985
      dxz     :    -0.001137
      dyz     :     0.017015
      dx2y2   :     0.020790
      dxy     :    -0.002035
      f0      :     0.001509  f :     0.008283
      f+1     :     0.001423
      f-1     :     0.001762
      f+2     :     0.000879
      f-2     :     0.000667
      f+3     :     0.000669
      f-3     :     0.001375
  8 H s       :     0.936079  s :     0.936079
      pz      :     0.027125  p :     0.062043
      px      :     0.017610
      py      :     0.017308
      dz2     :     0.000691  d :     0.002127
      dxz     :     0.000452
      dyz     :     0.000563
      dx2y2   :     0.000211
      dxy     :     0.000211
  9 H s       :     0.978607  s :     0.978607
      pz      :     0.015187  p :     0.064704
      px      :     0.040122
      py      :     0.009395
      dz2     :     0.000663  d :     0.002087
      dxz     :     0.000445
      dyz     :     0.000369
      dx2y2   :     0.000277
      dxy     :     0.000332
 10 C s       :     2.937928  s :     2.937928
      pz      :     0.845401  p :     2.854493
      px      :     0.917956
      py      :     1.091136
      dz2     :     0.017516  d :    -0.000900
      dxz     :     0.067203
      dyz     :    -0.067523
      dx2y2   :    -0.023137
      dxy     :     0.005041
      f0      :     0.001531  f :     0.008178
      f+1     :     0.000908
      f-1     :     0.001387
      f+2     :     0.001239
      f-2     :     0.001543
      f+3     :     0.000866
      f-3     :     0.000703
 11 C s       :     3.022091  s :     3.022091
      pz      :     0.970419  p :     2.820230
      px      :     0.965584
      py      :     0.884227
      dz2     :     0.006407  d :     0.060398
      dxz     :    -0.017974
      dyz     :     0.039964
      dx2y2   :     0.017645
      dxy     :     0.014357
      f0      :     0.001446  f :     0.008384
      f+1     :     0.000674
      f-1     :     0.001950
      f+2     :     0.001458
      f-2     :     0.001144
      f+3     :     0.000896
      f-3     :     0.000816
 12 C s       :     3.082307  s :     3.082307
      pz      :     1.020646  p :     2.906454
      px      :     0.962740
      py      :     0.923068
      dz2     :    -0.029074  d :     0.049109
      dxz     :     0.012729
      dyz     :     0.002861
      dx2y2   :     0.031535
      dxy     :     0.031058
      f0      :     0.001619  f :     0.008210
      f+1     :     0.001187
      f-1     :     0.001407
      f+2     :     0.000986
      f-2     :     0.001185
      f+3     :     0.000809
      f-3     :     0.001016
 13 H s       :     0.983986  s :     0.983986
      pz      :     0.014542  p :     0.053308
      px      :     0.038543
      py      :     0.000223
      dz2     :     0.000534  d :     0.002076
      dxz     :     0.000671
      dyz     :     0.000731
      dx2y2   :     0.000067
      dxy     :     0.000073
 14 C s       :     3.027052  s :     3.027052
      pz      :     0.967971  p :     2.934500
      px      :     1.061687
      py      :     0.904843
      dz2     :     0.014230  d :     0.052257
      dxz     :     0.013121
      dyz     :     0.020246
      dx2y2   :     0.014869
      dxy     :    -0.010209
      f0      :     0.001396  f :     0.008208
      f+1     :     0.001076
      f-1     :     0.002090
      f+2     :     0.000930
      f-2     :     0.000829
      f+3     :     0.000905
      f-3     :     0.000982
 15 H s       :     0.941860  s :     0.941860
      pz      :     0.025894  p :     0.055055
      px      :     0.019351
      py      :     0.009809
      dz2     :     0.000672  d :     0.002126
      dxz     :     0.000514
      dyz     :     0.000640
      dx2y2   :     0.000141
      dxy     :     0.000159
 16 C s       :     3.058774  s :     3.058774
      pz      :     0.990870  p :     2.843593
      px      :     0.955091
      py      :     0.897631
      dz2     :     0.006107  d :     0.026529
      dxz     :    -0.002193
      dyz     :     0.009400
      dx2y2   :     0.010262
      dxy     :     0.002954
      f0      :     0.001361  f :     0.008308
      f+1     :     0.001539
      f-1     :     0.001908
      f+2     :     0.000792
      f-2     :     0.000639
      f+3     :     0.000687
      f-3     :     0.001380
 17 H s       :     0.948282  s :     0.948282
      pz      :     0.011512  p :     0.073325
      px      :     0.055469
      py      :     0.006344
      dz2     :     0.000453  d :     0.002100
      dxz     :     0.000266
      dyz     :     0.000396
      dx2y2   :     0.000469
      dxy     :     0.000516
 18 H s       :     0.976050  s :     0.976050
      pz      :     0.011346  p :     0.059862
      px      :     0.038576
      py      :     0.009940
      dz2     :     0.000611  d :     0.002085
      dxz     :     0.000367
      dyz     :     0.000380
      dx2y2   :     0.000315
      dxy     :     0.000411
 19 Cls       :     6.020514  s :     6.020514
      pz      :     3.885983  p :    11.551465
      px      :     3.957935
      py      :     3.707546
      dz2     :     0.002217  d :     0.021506
      dxz     :     0.000475
      dyz     :     0.005481
      dx2y2   :     0.006550
      dxy     :     0.006783
      f0      :     0.000090  f :     0.001130
      f+1     :     0.000016
      f-1     :     0.000208
      f+2     :     0.000158
      f-2     :     0.000029
      f+3     :     0.000223
      f-3     :     0.000405
 20 H s       :     1.239177  s :     1.239177
      pz      :     0.006104  p :    -0.022072
      px      :    -0.022829
      py      :    -0.005347
      dz2     :     0.000535  d :     0.000841
      dxz     :     0.000173
      dyz     :     0.000088
      dx2y2   :     0.000023
      dxy     :     0.000022
 21 H s       :     0.967960  s :     0.967960
      pz      :     0.012771  p :     0.046414
      px      :     0.033462
      py      :     0.000180
      dz2     :     0.000513  d :     0.002075
      dxz     :     0.000694
      dyz     :     0.000769
      dx2y2   :     0.000049
      dxy     :     0.000049
 22 H s       :     0.907548  s :     0.907548
      pz      :     0.003753  p :     0.041616
      px      :     0.004160
      py      :     0.033704
      dz2     :     0.000161  d :     0.002148
      dxz     :     0.000107
      dyz     :     0.000694
      dx2y2   :     0.000636
      dxy     :     0.000549


                     *******************************
                     * LOEWDIN POPULATION ANALYSIS *
                     *******************************

----------------------
LOEWDIN ATOMIC CHARGES
----------------------
   0 Zr:    0.463760
   1 C :   -0.067436
   2 C :   -0.059253
   3 C :   -0.075955
   4 H :    0.004836
   5 C :   -0.054053
   6 H :    0.005604
   7 C :   -0.062539
   8 H :    0.005712
   9 H :    0.006629
  10 C :   -0.058609
  11 C :   -0.065997
  12 C :   -0.055745
  13 H :   -0.000068
  14 C :   -0.072125
  15 H :    0.004762
  16 C :   -0.067252
  17 H :    0.007903
  18 H :    0.004509
  19 Cl:    0.157767
  20 H :   -0.026812
  21 H :   -0.000503
  22 H :    0.004866

-------------------------------
LOEWDIN REDUCED ORBITAL CHARGES
-------------------------------
  0 Zrs       :     1.803025  s :     1.803025
      pz      :     2.117453  p :     6.312991
      px      :     2.049883
      py      :     2.145654
      dz2     :     0.778036  d :     2.523307
      dxz     :     0.456902
      dyz     :     0.249576
      dx2y2   :     0.580260
      dxy     :     0.458534
      f0      :     0.107846  f :     0.660857
      f+1     :     0.055248
      f-1     :     0.052590
      f+2     :     0.096351
      f-2     :     0.054240
      f+3     :     0.178376
      f-3     :     0.116207
      g0      :     0.024383  g :     0.236061
      g+1     :     0.021233
      g-1     :     0.017444
      g+2     :     0.021315
      g-2     :     0.012323
      g+3     :     0.023532
      g-3     :     0.027687
      g+4     :     0.051796
      g-4     :     0.036349
  1 C s       :     2.634595  s :     2.634595
      pz      :     0.926398  p :     2.575266
      px      :     0.759900
      py      :     0.888968
      dz2     :     0.204622  d :     0.809179
      dxz     :     0.110377
      dyz     :     0.174926
      dx2y2   :     0.157612
      dxy     :     0.161643
      f0      :     0.006077  f :     0.048397
      f+1     :     0.003443
      f-1     :     0.013681
      f+2     :     0.009190
      f-2     :     0.008544
      f+3     :     0.004460
      f-3     :     0.003003
  2 C s       :     2.626866  s :     2.626866
      pz      :     0.905154  p :     2.594620
      px      :     0.796603
      py      :     0.892864
      dz2     :     0.217217  d :     0.790142
      dxz     :     0.160450
      dyz     :     0.186196
      dx2y2   :     0.113399
      dxy     :     0.112881
      f0      :     0.009122  f :     0.047625
      f+1     :     0.005390
      f-1     :     0.010209
      f+2     :     0.007597
      f-2     :     0.008754
      f+3     :     0.003673
      f-3     :     0.002881
  3 C s       :     2.631631  s :     2.631631
      pz      :     0.908603  p :     2.598575
      px      :     0.777848
      py      :     0.912123
      dz2     :     0.200343  d :     0.798207
      dxz     :     0.149960
      dyz     :     0.211869
      dx2y2   :     0.116908
      dxy     :     0.119128
      f0      :     0.008329  f :     0.047543
      f+1     :     0.005209
      f-1     :     0.014021
      f+2     :     0.006437
      f-2     :     0.005590
      f+3     :     0.004313
      f-3     :     0.003645
  4 H s       :     0.702005  s :     0.702005
      pz      :     0.061782  p :     0.264374
      px      :     0.089926
      py      :     0.112666
      dz2     :     0.003352  d :     0.028785
      dxz     :     0.001260
      dyz     :     0.007678
      dx2y2   :     0.008113
      dxy     :     0.008382
  5 C s       :     2.626657  s :     2.626657
      pz      :     0.909571  p :     2.587935
      px      :     0.786603
      py      :     0.891762
      dz2     :     0.165803  d :     0.791324
      dxz     :     0.131843
      dyz     :     0.224129
      dx2y2   :     0.125782
      dxy     :     0.143766
      f0      :     0.011360  f :     0.048138
      f+1     :     0.007588
      f-1     :     0.007918
      f+2     :     0.005639
      f-2     :     0.005766
      f+3     :     0.004794
      f-3     :     0.005072
  6 H s       :     0.700930  s :     0.700930
      pz      :     0.067494  p :     0.264783
      px      :     0.088896
      py      :     0.108392
      dz2     :     0.004112  d :     0.028683
      dxz     :     0.002379
      dyz     :     0.007417
      dx2y2   :     0.007446
      dxy     :     0.007328
  7 C s       :     2.631191  s :     2.631191
      pz      :     0.913683  p :     2.586577
      px      :     0.768038
      py      :     0.904856
      dz2     :     0.157884  d :     0.796495
      dxz     :     0.136832
      dyz     :     0.246622
      dx2y2   :     0.135842
      dxy     :     0.119315
      f0      :     0.010820  f :     0.048275
      f+1     :     0.007963
      f-1     :     0.010349
      f+2     :     0.004161
      f-2     :     0.004153
      f+3     :     0.004378
      f-3     :     0.006451
  8 H s       :     0.702473  s :     0.702473
      pz      :     0.102398  p :     0.263183
      px      :     0.088094
      py      :     0.072692
      dz2     :     0.008903  d :     0.028631
      dxz     :     0.007011
      dyz     :     0.007830
      dx2y2   :     0.002361
      dxy     :     0.002526
  9 H s       :     0.701719  s :     0.701719
      pz      :     0.093944  p :     0.263208
      px      :     0.078091
      py      :     0.091172
      dz2     :     0.007480  d :     0.028444
      dxz     :     0.004771
      dyz     :     0.008562
      dx2y2   :     0.003915
      dxy     :     0.003716
 10 C s       :     2.626541  s :     2.626541
      pz      :     0.904207  p :     2.592776
      px      :     0.797016
      py      :     0.891553
      dz2     :     0.225167  d :     0.791632
      dxz     :     0.163782
      dyz     :     0.176791
      dx2y2   :     0.111751
      dxy     :     0.114141
      f0      :     0.009755  f :     0.047659
      f+1     :     0.004462
      f-1     :     0.009012
      f+2     :     0.008574
      f-2     :     0.010017
      f+3     :     0.003565
      f-3     :     0.002274
 11 C s       :     2.634527  s :     2.634527
      pz      :     0.925894  p :     2.575602
      px      :     0.761208
      py      :     0.888501
      dz2     :     0.198479  d :     0.807518
      dxz     :     0.108412
      dyz     :     0.187150
      dx2y2   :     0.150550
      dxy     :     0.162928
      f0      :     0.007342  f :     0.048350
      f+1     :     0.003883
      f-1     :     0.012285
      f+2     :     0.009362
      f-2     :     0.007684
      f+3     :     0.004739
      f-3     :     0.003055
 12 C s       :     2.626654  s :     2.626654
      pz      :     0.909617  p :     2.592326
      px      :     0.792129
      py      :     0.890580
      dz2     :     0.177039  d :     0.788781
      dxz     :     0.124281
      dyz     :     0.206169
      dx2y2   :     0.134359
      dxy     :     0.146933
      f0      :     0.010511  f :     0.047985
      f+1     :     0.006265
      f-1     :     0.008423
      f+2     :     0.006260
      f-2     :     0.007451
      f+3     :     0.004314
      f-3     :     0.004760
 13 H s       :     0.704257  s :     0.704257
      pz      :     0.118433  p :     0.267326
      px      :     0.083054
      py      :     0.065839
      dz2     :     0.011049  d :     0.028485
      dxz     :     0.007694
      dyz     :     0.008502
      dx2y2   :     0.000603
      dxy     :     0.000636
 14 C s       :     2.631888  s :     2.631888
      pz      :     0.912199  p :     2.597819
      px      :     0.777622
      py      :     0.907998
      dz2     :     0.185696  d :     0.794896
      dxz     :     0.148784
      dyz     :     0.224079
      dx2y2   :     0.117613
      dxy     :     0.118725
      f0      :     0.008371  f :     0.047522
      f+1     :     0.006319
      f-1     :     0.014320
      f+2     :     0.005259
      f-2     :     0.004244
      f+3     :     0.004612
      f-3     :     0.004397
 15 H s       :     0.703018  s :     0.703018
      pz      :     0.107956  p :     0.263550
      px      :     0.087309
      py      :     0.068285
      dz2     :     0.009663  d :     0.028669
      dxz     :     0.007722
      dyz     :     0.007943
      dx2y2   :     0.001604
      dxy     :     0.001738
 16 C s       :     2.631731  s :     2.631731
      pz      :     0.913804  p :     2.584744
      px      :     0.765217
      py      :     0.905723
      dz2     :     0.159811  d :     0.802395
      dxz     :     0.147323
      dyz     :     0.246609
      dx2y2   :     0.133894
      dxy     :     0.114758
      f0      :     0.009693  f :     0.048382
      f+1     :     0.008535
      f-1     :     0.011995
      f+2     :     0.003318
      f-2     :     0.003868
      f+3     :     0.004385
      f-3     :     0.006588
 17 H s       :     0.701364  s :     0.701364
      pz      :     0.072857  p :     0.262105
      px      :     0.087155
      py      :     0.102094
      dz2     :     0.004812  d :     0.028628
      dxz     :     0.003159
      dyz     :     0.007424
      dx2y2   :     0.006704
      dxy     :     0.006530
 18 H s       :     0.701267  s :     0.701267
      pz      :     0.087580  p :     0.265764
      px      :     0.079609
      py      :     0.098575
      dz2     :     0.006579  d :     0.028460
      dxz     :     0.003921
      dyz     :     0.008509
      dx2y2   :     0.004842
      dxy     :     0.004609
 19 Cls       :     5.599516  s :     5.599516
      pz      :     3.724429  p :    11.116889
      px      :     3.736063
      py      :     3.656397
      dz2     :     0.018250  d :     0.124215
      dxz     :     0.005721
      dyz     :     0.015592
      dx2y2   :     0.041162
      dxy     :     0.043489
      f0      :     0.000066  f :     0.001614
      f+1     :     0.000032
      f-1     :     0.000335
      f+2     :     0.000113
      f-2     :     0.000035
      f+3     :     0.000344
      f-3     :     0.000689
 20 H s       :     0.857813  s :     0.857813
      pz      :     0.082881  p :     0.162913
      px      :     0.053168
      py      :     0.026863
      dz2     :     0.004396  d :     0.006086
      dxz     :     0.000967
      dyz     :     0.000564
      dx2y2   :     0.000100
      dxy     :     0.000058
 21 H s       :     0.704106  s :     0.704106
      pz      :     0.120337  p :     0.267901
      px      :     0.085035
      py      :     0.062529
      dz2     :     0.011346  d :     0.028495
      dxz     :     0.008017
      dyz     :     0.008362
      dx2y2   :     0.000379
      dxy     :     0.000391
 22 H s       :     0.701542  s :     0.701542
      pz      :     0.059537  p :     0.264793
      px      :     0.091408
      py      :     0.113848
      dz2     :     0.003029  d :     0.028799
      dxz     :     0.001092
      dyz     :     0.007526
      dx2y2   :     0.008463
      dxy     :     0.008689


                      *****************************
                      * MAYER POPULATION ANALYSIS *
                      *****************************

  NA   - Mulliken gross atomic population
  ZA   - Total nuclear charge
  QA   - Mulliken gross atomic charge
  VA   - Mayer's total valence
  BVA  - Mayer's bonded valence
  FA   - Mayer's free valence

  ATOM       NA         ZA         QA         VA         BVA        FA
  0 Zr    11.6673    12.0000     0.3327     5.6956     5.6956     0.0000
  1 C      5.8373     6.0000     0.1627     3.6980     3.6980     0.0000
  2 C      5.8762     6.0000     0.1238     3.6913     3.6913    -0.0000
  3 C      5.9869     6.0000     0.0131     3.7911     3.7911     0.0000
  4 H      0.9786     1.0000     0.0214     1.0038     1.0038     0.0000
  5 C      6.0112     6.0000    -0.0112     3.7419     3.7419     0.0000
  6 H      1.0154     1.0000    -0.0154     1.1003     1.1003     0.0000
  7 C      5.9849     6.0000     0.0151     3.7907     3.7907     0.0000
  8 H      1.0002     1.0000    -0.0002     1.0635     1.0635     0.0000
  9 H      1.0454     1.0000    -0.0454     1.0927     1.0927     0.0000
 10 C      5.7997     6.0000     0.2003     3.5523     3.5523     0.0000
 11 C      5.9111     6.0000     0.0889     3.7487     3.7487     0.0000
 12 C      6.0461     6.0000    -0.0461     3.7399     3.7399     0.0000
 13 H      1.0394     1.0000    -0.0394     1.0462     1.0462     0.0000
 14 C      6.0220     6.0000    -0.0220     3.8469     3.8469    -0.0000
 15 H      0.9990     1.0000     0.0010     1.0430     1.0430     0.0000
 16 C      5.9372     6.0000     0.0628     3.7442     3.7442    -0.0000
 17 H      1.0237     1.0000    -0.0237     1.1027     1.1027    -0.0000
 18 H      1.0380     1.0000    -0.0380     1.0813     1.0813    -0.0000
 19 Cl    17.5946    17.0000    -0.5946     0.7452     0.7452     0.0000
 20 H      1.2179     1.0000    -0.2179     0.8367     0.8367     0.0000
 21 H      1.0164     1.0000    -0.0164     1.0146     1.0146     0.0000
 22 H      0.9513     1.0000     0.0487     0.9903     0.9903     0.0000

  Mayer bond orders larger than 0.100000
B(  0-Zr,  1-C ) :   0.2794 B(  0-Zr,  2-C ) :   0.3446 B(  0-Zr,  3-C ) :   0.4218 
B(  0-Zr,  5-C ) :   0.3556 B(  0-Zr,  7-C ) :   0.3449 B(  0-Zr, 10-C ) :   0.3026 
B(  0-Zr, 11-C ) :   0.2786 B(  0-Zr, 12-C ) :   0.3962 B(  0-Zr, 14-C ) :   0.4171 
B(  0-Zr, 16-C ) :   0.3453 B(  0-Zr, 19-Cl) :   0.7270 B(  0-Zr, 20-H ) :   0.9335 
B(  1-C ,  2-C ) :   1.3663 B(  1-C ,  3-C ) :   1.3665 B(  1-C ,  5-C ) :  -0.1015 
B(  1-C , 21-H ) :   0.9186 B(  2-C ,  3-C ) :  -0.1273 B(  2-C ,  4-H ) :   0.8847 
B(  2-C ,  5-C ) :   1.3367 B(  2-C ,  7-C ) :  -0.1456 B(  3-C ,  5-C ) :  -0.1279 
B(  3-C ,  6-H ) :   0.9238 B(  3-C ,  7-C ) :   1.3759 B(  5-C ,  7-C ) :   1.3502 
B(  5-C ,  8-H ) :   0.9262 B(  7-C ,  9-H ) :   0.9660 B( 10-C , 11-C ) :   1.3511 
B( 10-C , 12-C ) :   1.3380 B( 10-C , 14-C ) :  -0.1301 B( 10-C , 16-C ) :  -0.1684 
B( 10-C , 22-H ) :   0.8664 B( 11-C , 12-C ) :  -0.1074 B( 11-C , 13-H ) :   0.9399 
B( 11-C , 14-C ) :   1.3873 B( 12-C , 14-C ) :  -0.1363 B( 12-C , 15-H ) :   0.9422 
B( 12-C , 16-C ) :   1.3042 B( 14-C , 16-C ) :   1.4069 B( 14-C , 17-H ) :   0.9264 
B( 16-C , 18-H ) :   0.9601 

-------
TIMINGS
-------

Total SCF time: 0 days 0 hours 0 min 45 sec 

Total time                  ....      45.728 sec
Sum of individual times     ....      45.091 sec  ( 98.6%)

Fock matrix formation       ....      38.934 sec  ( 85.1%)
  XC integration            ....       5.100 sec  ( 13.1% of F)
    Basis function eval.    ....       0.891 sec  ( 17.5% of XC)
    Density eval.           ....       1.593 sec  ( 31.2% of XC)
    XC-Functional eval.     ....       0.055 sec  (  1.1% of XC)
    XC-Potential eval.      ....       2.042 sec  ( 40.0% of XC)
Diagonalization             ....       1.556 sec  (  3.4%)
Density matrix formation    ....       0.090 sec  (  0.2%)
Population analysis         ....       0.083 sec  (  0.2%)
Initial guess               ....       2.689 sec  (  5.9%)
Orbital Transformation      ....       0.000 sec  (  0.0%)
Orbital Orthonormalization  ....       0.000 sec  (  0.0%)
DIIS solution               ....       0.954 sec  (  2.1%)
Grid generation             ....       0.784 sec  (  1.7%)


           ************************************************************
           *        Program running with 24 parallel MPI-processes    *
           *              working on a common directory               *
           ************************************************************

------------------------------------------------------------------------------
                                ORCA  MP2 
------------------------------------------------------------------------------

Freezing NCore=30 chemical core electrons

-------------
RI-MP2 ENERGY
-------------
Dimension of the basis                    ...  664
Memory devoted to MP2                     ... 5000 MB   
Data format for buffers                   ... DOUBLE
Compression type for matrix containers    ... UNCOMPRESSED
Scaling for aa/bb pairs                   ...   4.000e-01
Scaling for ab pairs                      ...   4.700e-01
Overall scaling of the MP2 energy         ...   1.000e+00
Calculating two index integrals           ... done (    0.021 sec)
Cholesky decomposition of V**-1           ... done (    0.281 sec)

-----------------
RI-TRANSFORMATION (AUX index driven)
-----------------

Dimension of the orbital-basis         ... 664
Dimension of the aux-basis             ... 1664
Transformation of internal/external MOs...   15-  49 to   50- 663
Number Format for Storage              ... Double (8 Byte)
Integral mode                          ... Direct

First Phase: integral generation and transformation of MO indices
  Aux angular momentum 0               ... done (    0.088 sec)
  Aux angular momentum 1               ... done (    0.184 sec)
  Aux angular momentum 2               ... done (    0.291 sec)
  Aux angular momentum 3               ... done (    0.227 sec)
  Aux angular momentum 4               ... done (    0.090 sec)
  Aux angular momentum 5               ... done (    0.112 sec)
  Aux angular momentum 6               ... done (    0.145 sec)
Closing buffer VIA ( 0.27 GB; CompressionRatio= 1.00)
  Phase 1 completed in     1.235 sec
Second Phase: sorting and transformation of aux index

IA-Transformation
Memory available                       ... 4944 MB 
Max. # MO pairs treated in a batch     ... 2    
# of internal orbitals                 ... 35
# batches for internal orbitals        ... 1
Closing buffer IAV ( 0.02 GB; CompressionRatio= 1.00)
(ia|v) transformation done in     0.211 sec

  Phase 2 completed in     0.508 sec
RI-Integral transformation completed in     1.755 sec
Opening buffers                              ... done

Starting loop over batches of integrals:

Operator 0  - window                       ... ( 15- 49)x( 50-663)
Operator 0  - Memory available             ...  5000 MB
Operator 0  - Memory needed per MO         ...   7.8 MB
Operator 0  - Number of orbitals per batch ... 2
Operator 0  - Number of batches            ... 1

OPERATOR  0   PASS   0:  MOs    15 ...   16 +   17 ...   18 +   19 ...   20 +   21 ...   22
                            +   23 ...   24 +   25 ...   26 +   27 ...   28 +   29 ...   30
                            +   31 ...   32 +   33 ...   34 +   35 ...   36 +   37 ...   38
                            +   39 ...   40 +   41 ...   42 +   43 ...   44 +   45 ...   46
                            +   47 ...   48 +   49 ...   49
  Reading integrals       ... ok
Time spent in pair loops =     0.115 sec
Deleting buffer (Ka|jb)[aa] ...done

-----------------------------------------------
 RI-MP2 CORRELATION ENERGY:     -1.126540054 Eh
-----------------------------------------------


-------
TIMINGS
-------

Total time                :    3.926 sec
Integral trafo            :    1.767 sec ( 45.0%)
I/O of integrals          :    0.018 sec (  0.5%)
K(i,j) Operators          :    0.067 sec (  1.7%)
T(i,j) pair energies      :    0.013 sec (  0.3%)
V-calculation             :    0.021 sec (  0.5%)
V**(-1/2)                 :    0.281 sec (  7.2%)
Gamma(ia|P)               :    0.000 sec (  0.0%)
Gamma-Trafo               :    0.000 sec (  0.0%)
D(virtual)                :    0.000 sec (  0.0%)
D(internal)               :    0.000 sec (  0.0%)
W(virtual)                :    0.000 sec (  0.0%)
W(internal)               :    0.000 sec (  0.0%)
L(virtual)                :    0.000 sec (  0.0%)
L(internal)               :    0.000 sec (  0.0%)
G(D)                      :    0.000 sec (  0.0%)
G(Z)                      :    0.000 sec (  0.0%)
Z-Vector Solution         :    0.000 sec (  0.0%)
Z-Vector Solution         :    0.000 sec (  0.0%)
3-Index Derivative 
+ Separable RIJ part      :    0.000 sec (  0.0%)
2-Index Derivative 
+ Separable RIJ part      :    0.000 sec (  0.0%)
Separable Gradient (X)    :    0.000 sec (  0.0%)


---------------------------------------
MP2 TOTAL ENERGY:     -894.397947622 Eh
---------------------------------------


-------------------------------------------------------------------------------
                          DFT DISPERSION CORRECTION                            
                                                                               
                              DFTD3 V3.1  Rev 1                                
                          USING Becke-Johnson damping                          
-------------------------------------------------------------------------------
The DSD-BLYP/2013 functional is recognized
Active option DFTDOPT                   ...         4   

molecular C6(AA) [au] = 8519.288746 


            DFT-D V3
 parameters
 s6 scaling factor         :     0.5700 
 a1 scaling factor         :     0.0000 
 s8 scaling factor         :     0.0000 
 a2 scaling factor         :     5.4000 
 ad hoc parameters k1-k3   :    16.0000     1.3333    -4.0000 

 Edisp/kcal,au: -24.507820523922  -0.039055693854 
 E6   /kcal   : -24.507820524 
 E8   /kcal   :  -0.000000000 
 % E8         :   0.000000000 

-------------------------   ----------------
Dispersion correction           -0.039055694
-------------------------   ----------------


-------------------------   --------------------
FINAL SINGLE POINT ENERGY      -894.437003316230
-------------------------   --------------------


                            ***************************************
                            *     ORCA property calculations      *
                            ***************************************


  WARNING: The energy has been calculated at the MP2 level but the densities
           used in the property calculations are still SCF densities
           MP2 response densities have not been calculated 
           use %mp2 Density relaxed end
           or  %mp2 Density unrelaxed end

                                    ---------------------
                                    Active property flags
                                    ---------------------
   (+) Dipole Moment


------------------------------------------------------------------------------
                       ORCA ELECTRIC PROPERTIES CALCULATION
------------------------------------------------------------------------------

Dipole Moment Calculation                       ... on
Quadrupole Moment Calculation                   ... off
Polarizability Calculation                      ... off
GBWName                                         ... TMB01_R1.gbw
Electron density file                           ... TMB01_R1.scfp
The origin for moment calculation is the CENTER OF MASS  = ( 0.000249,  0.084418 -0.012618)

-------------
DIPOLE MOMENT
-------------
                                X             Y             Z
Electronic contribution:     -0.01718      12.97959     -12.55839
Nuclear contribution   :      0.01059     -14.41688      13.08524
                        -----------------------------------------
Total Dipole Moment    :     -0.00659      -1.43729       0.52685
                        -----------------------------------------
Magnitude (a.u.)       :      1.53082
Magnitude (Debye)      :      3.89103



--------------------
Rotational spectrum 
--------------------
 
Rotational constants in cm-1:     0.033538     0.025044     0.018059 
Rotational constants in MHz :  1005.445647   750.792016   541.402542 

 Dipole components along the rotational axes: 
x,y,z [a.u.] :    -0.007142    -1.438510     0.523489 
x,y,z [Debye]:    -0.018153    -3.656402     1.330604 

 

Timings for individual modules:

Sum of individual times         ...       53.560 sec (=   0.893 min)
GTO integral calculation        ...        2.926 sec (=   0.049 min)   5.5 %
SCF iterations                  ...       46.093 sec (=   0.768 min)  86.1 %
MP2 module                      ...        4.542 sec (=   0.076 min)   8.5 %
                             ****ORCA TERMINATED NORMALLY****
TOTAL RUN TIME: 0 days 0 hours 0 minutes 54 seconds 125 msec
