
                                 *****************
                                 * O   R   C   A *
                                 *****************

           --- An Ab Initio, DFT and Semiempirical electronic structure package ---

                  #######################################################
                  #                        -***-                        #
                  #          Department of theory and spectroscopy      #
                  #               Directorship: Frank Neese             #
                  #        Max Planck Institute fuer Kohlenforschung    #
                  #                Kaiser Wilhelm Platz 1               #
                  #                 D-45470 Muelheim/Ruhr               #
                  #                      Germany                        #
                  #                                                     #
                  #                  All rights reserved                #
                  #                        -***-                        #
                  #######################################################


                         Program Version 4.2.0 -  RELEASE  -


 With contributions from (in alphabetic order):
   Daniel Aravena         : Magnetic Suceptibility
   Michael Atanasov       : Ab Initio Ligand Field Theory (pilot matlab implementation)
   Alexander A. Auer      : GIAO ZORA, VPT2
   Ute Becker             : Parallelization
   Giovanni Bistoni       : ED, misc. LED, open-shell LED, HFLED
   Martin Brehm           : Molecular dynamics
   Dmytro Bykov           : SCF Hessian
   Vijay G. Chilkuri      : MRCI spin determinant printing, contributions to CSF-ICE
   Dipayan Datta          : RHF DLPNO-CCSD density
   Achintya Kumar Dutta   : EOM-CC, STEOM-CC
   Dmitry Ganyushin       : Spin-Orbit,Spin-Spin,Magnetic field MRCI
   Miquel Garcia          : C-PCM Hessian, Gaussian charge scheme
   Yang Guo               : DLPNO-NEVPT2, CIM, IAO-localization
   Andreas Hansen         : Spin unrestricted coupled pair/coupled cluster methods
   Benjamin Helmich-Paris : CASSCF linear response (MC-RPA)
   Lee Huntington         : MR-EOM, pCC
   Robert Izsak           : Overlap fitted RIJCOSX, COSX-SCS-MP3, EOM
   Christian Kollmar      : KDIIS, OOCD, Brueckner-CCSD(T), CCSD density
   Simone Kossmann        : Meta GGA functionals, TD-DFT gradient, OOMP2, MP2 Hessian
   Martin Krupicka        : AUTO-CI
   Lucas Lang             : DCDCAS
   Dagmar Lenk            : GEPOL surface, SMD
   Dimitrios Liakos       : Extrapolation schemes; Compound Job, initial MDCI parallelization
   Dimitrios Manganas     : Further ROCIS development; embedding schemes
   Dimitrios Pantazis     : SARC Basis sets
   Taras Petrenko         : DFT Hessian,TD-DFT gradient, ASA, ECA, R-Raman, ABS, FL, XAS/XES, NRVS
   Peter Pinski           : DLPNO-MP2, DLPNO-MP2 Gradient
   Christoph Reimann      : Effective Core Potentials
   Marius Retegan         : Local ZFS, SOC
   Christoph Riplinger    : Optimizer, TS searches, QM/MM, DLPNO-CCSD(T), (RO)-DLPNO pert. Triples
   Tobias Risthaus        : Range-separated hybrids, TD-DFT gradient, RPA, STAB
   Michael Roemelt        : Original ROCIS implementation
   Masaaki Saitow         : Open-shell DLPNO-CCSD energy and density
   Barbara Sandhoefer     : DKH picture change effects
   Avijit Sen             : IP-ROCIS
   Kantharuban Sivalingam : CASSCF convergence, NEVPT2, FIC-MRCI
   Bernardo de Souza      : ESD, SOC TD-DFT
   Georgi Stoychev        : AutoAux, RI-MP2 NMR
   Willem Van den Heuvel  : Paramagnetic NMR
   Boris Wezisla          : Elementary symmetry handling
   Frank Wennmohs         : Technical directorship


 We gratefully acknowledge several colleagues who have allowed us to
 interface, adapt or use parts of their codes:
   Stefan Grimme, W. Hujo, H. Kruse,             : VdW corrections, initial TS optimization,
                  C. Bannwarth                     DFT functionals, gCP, sTDA/sTD-DF
   Ed Valeev, F. Pavosevic, A. Kumar             : LibInt (2-el integral package), F12 methods
   Garnet Chan, S. Sharma, J. Yang, R. Olivares  : DMRG
   Ulf Ekstrom                                   : XCFun DFT Library
   Mihaly Kallay                                 : mrcc  (arbitrary order and MRCC methods)
   Andreas Klamt, Michael Diedenhofen            : otool_cosmo (COSMO solvation model)
   Jiri Pittner, Ondrej Demel                    : Mk-CCSD
   Frank Weinhold                                : gennbo (NPA and NBO analysis)
   Christopher J. Cramer and Donald G. Truhlar   : smd solvation model
   Lars Goerigk                                  : TD-DFT with DH, B97 family of functionals
   V. Asgeirsson, H. Jonsson                     : NEB implementation
   FAccTs GmbH                                   : IRC, NEB, NEB-TS, Multilevel, MM, QM/MM, CI optimization
   S Lehtola, MJT Oliveira, MAL Marques          : LibXC Library


 Your calculation uses the libint2 library for the computation of 2-el integrals
 For citations please refer to: http://libint.valeyev.net

 Your ORCA version has been built with support for libXC version: 4.2.3
 For citations please refer to: https://tddft.org/programs/libxc/

 This ORCA versions uses:
   CBLAS   interface :  Fast vector & matrix operations
   LAPACKE interface :  Fast linear algebra routines
   SCALAPACK package :  Parallel linear algebra routines


----- Orbital basis set information -----
Your calculation utilizes the basis: def2-SVP
   F. Weigend and R. Ahlrichs, Phys. Chem. Chem. Phys. 7, 3297 (2005).

----- AuxJ basis set information -----
Your calculation utilizes the auxiliary basis: def2/J
   F. Weigend, Phys. Chem. Chem. Phys. 8, 1057 (2006).

================================================================================
                                        WARNINGS
                       Please study these warnings very carefully!
================================================================================


INFO   : the flag for use of LIBINT has been found!

================================================================================
                                       INPUT FILE
================================================================================
NAME = TMB06_C1_atom74.inp
|  1> # input to generate an atomic fitting density for W 
|  2> # this file is use internally by ORCA
|  3> #
|  4> # atomic ground state (S=5): 1s2 2s2 2p6 3s2 3p6 4s2 3d10 4p6 5s2 4d10 5p6 6s2 4f14 5d4 
|  5> #
|  6> ! RHF AllowRHF def2-SVP def2/J  NoMulliken NoLoewdin NoMayer NoPrintMOs 
|  7> 
|  8> %output print[p_atomdensfit] 2 end
|  9> 
| 10> %scf
| 11>   guess hcore
| 12>   maxiter 1000
| 13>   maxdisk 500000
| 14>   SCFMode Conventional
| 15>   lshift 0.500000
| 16>   hftyp rohf
| 17>   rohf_case sahf
| 18>   rohf_numop   2
| 19>   rohf_norb[1] 5
| 20>   rohf_nel[1]  4
| 21> end
| 22> 
| 23> %basis
| 24>   NewECP 74
| 25>     N_core 60
| 26>     lmax f
| 27>     s 3
| 28>       1      14.3228564000   1192.3958823000  2
| 29>       2       7.1614281000     32.5229332000  2
| 30>       3       2.2588885000    -14.1525795000  2
| 31>     p 3
| 32>       1      10.0216411000    359.0319671000  2
| 33>       2       5.0108204000     24.0303802000  2
| 34>       3       2.2588885000    -14.1525795000  2
| 35>     d 3
| 36>       1       6.5979974000    108.3013490000  2
| 37>       2       3.2989987000     10.9825283000  2
| 38>       3       2.2588885000    -14.1525795000  2
| 39>     f 1
| 40>       1       2.2588885000     14.1525795000  2
| 41>   end
| 42>   NewGTO 74
| 43>     s 3 
| 44>      1      30.0000000000      1.1087519451
| 45>      2      27.0000000000     -1.6054504407
| 46>      3      13.0780456840      1.4681670492
| 47>     s 1 
| 48>      1       4.8100449717      1.0000000000
| 49>     s 1 
| 50>      1       0.9849780426      1.0000000000
| 51>     s 1 
| 52>      1       0.4491048534      1.0000000000
| 53>     s 1 
| 54>      1       0.1144835292      1.0000000000
| 55>     s 1 
| 56>      1       0.0417204220      1.0000000000
| 57>     p 4 
| 58>      1      17.0000000000     -0.0915365247
| 59>      2      12.4319734320      0.2639678450
| 60>      3       5.1586217658     -0.7116151539
| 61>      4       1.2801454812      1.2480085239
| 62>     p 1 
| 63>      1       0.6285679090      1.0000000000
| 64>     p 1 
| 65>      1       0.2938042355      1.0000000000
| 66>     p 1 
| 67>      1       0.0650000000      1.0000000000
| 68>     d 4 
| 69>      1       7.4064737315      0.0625854177
| 70>      2       5.9026268603     -0.1271042649
| 71>      3       1.2984756750      0.3967305737
| 72>      4       0.5715350854      0.6857074962
| 73>     d 1 
| 74>      1       0.2384552661      1.0000000000
| 75>     d 1 
| 76>      1       0.0911442673      1.0000000000
| 77>     p 1 
| 78>      1       0.0279387790      1.0000000000
| 79>   end
| 80>   NewAuxGTO 74
| 81>     S 1
| 82>      1 1310.72 1.0
| 83>     S 1
| 84>      1  655.36 1.0
| 85>     S 1
| 86>      1  327.68 1.0
| 87>     S 1
| 88>      1  163.84 1.0
| 89>     S 1
| 90>      1   81.82 1.0
| 91>     S 1
| 92>      1   40.96 1.0
| 93>     S 1
| 94>      1   20.48 1.0
| 95>     S 1
| 96>      1   10.24 1.0
| 97>     S 1
| 98>      1    5.12 1.0
| 99>     S 1
|100>      1    2.56 1.0
|101>     S 1
|102>      1    1.28 1.0
|103>     S 1
|104>      1    0.64 1.0
|105>     S 1
|106>      1    0.32 1.0
|107>     S 1
|108>      1    0.16 1.0
|109>     S 1
|110>      1    0.08 1.0
|111>     S 1
|112>      1    0.04 1.0
|113>     S 1
|114>      1    0.02 1.0
|115>     S 1
|116>      1    0.01 1.0
|117>   end
|118> end
|119> 
|120> * xyz 0 5
|121> 74  0.0 0.0 0.0
|122> *
|123> 
|124> 
|125>                          ****END OF INPUT****
================================================================================

                       ****************************
                       * Single Point Calculation *
                       ****************************

---------------------------------
CARTESIAN COORDINATES (ANGSTROEM)
---------------------------------
  W      0.000000    0.000000    0.000000

----------------------------
CARTESIAN COORDINATES (A.U.)
----------------------------
  NO LB      ZA    FRAG     MASS         X           Y           Z
   0 W    14.0000*   0   183.850    0.000000    0.000000    0.000000
* core charge reduced due to ECP

--------------------------------
INTERNAL COORDINATES (ANGSTROEM)
--------------------------------
 W      0   0   0     0.000000000000     0.00000000     0.00000000

---------------------------
INTERNAL COORDINATES (A.U.)
---------------------------
 W      0   0   0     0.000000000000     0.00000000     0.00000000

---------------------
BASIS SET INFORMATION
---------------------
There are 1 groups of distinct atoms

 Group   1 Type W   : 8s8p6d contracted to 6s5p3d pattern {311111/41111/411}

Atom   0W    basis set group =>   1
---------------------------------
AUXILIARY/J BASIS SET INFORMATION
---------------------------------
There are 1 groups of distinct atoms

 Group   1 Type W   : 18s contracted to 18s pattern {111111111111111111}

Atom   0W    basis set group =>   1
-------------------------
ECP PARAMETER INFORMATION
-------------------------

 Group 1, Type W  ECP (replacing 60 core electrons, lmax=3)

Atom   0W    ECP group =>   1

------------------------------------------------------------------------------
                           ORCA GTO INTEGRAL CALCULATION
------------------------------------------------------------------------------

                         BASIS SET STATISTICS AND STARTUP INFO

 # of primitive gaussian shells          ...   22
 # of primitive gaussian functions       ...   62
 # of contracted shells                  ...   14
 # of contracted basis functions         ...   36
 Highest angular momentum                ...    2
 Maximum contraction depth               ...    4
 Integral package used                   ... LIBINT
 Integral threshhold            Thresh   ...  1.000e-10
 Primitive cut-off              TCut     ...  1.000e-11
 Storage cut-off                TCutStore... -1.000e+00
 Buffer length                           ... 1048576 integrals/buffer
 Generate file with integrals 4 distinct ...false


------------------------------ INTEGRAL EVALUATION ----------------------------


 * One electron integrals 

   ECP integrals                         ... done
 Pre-screening matrix                    ... done
 Shell pair data                         ... done (   0.000 sec)
 Statistics run                          ... done
 Maximum amount of storage needed        ...     2 MB
 Maximum amount of storage dedicated     ... 500000 MB
 Beginning two electron integral evaluation:
 Starting repulsion integrals
  <ss|ss>  ...          231 b.         0 skpd (  0.0%)     0.000 s. (  0.000 ms/b)
  <ss|sp>  ...          630 b.         0 skpd (  0.0%)     0.000 s. (  0.000 ms/b)
  <ss|sd>  ...          378 b.         0 skpd (  0.0%)     0.000 s. (  0.000 ms/b)
  <ss|pp>  ...          315 b.         0 skpd (  0.0%)     0.000 s. (  0.001 ms/b)
  <ss|pd>  ...          315 b.         0 skpd (  0.0%)     0.000 s. (  0.001 ms/b)
  <ss|dd>  ...          126 b.         0 skpd (  0.0%)     0.000 s. (  0.002 ms/b)
  <sp|sp>  ...          465 b.         0 skpd (  0.0%)     0.000 s. (  0.000 ms/b)
  <sp|sd>  ...          540 b.         0 skpd (  0.0%)     0.000 s. (  0.001 ms/b)
  <sp|pp>  ...          450 b.         0 skpd (  0.0%)     0.001 s. (  0.001 ms/b)
  <sp|pd>  ...          450 b.         0 skpd (  0.0%)     0.001 s. (  0.002 ms/b)
  <sp|dd>  ...          180 b.         0 skpd (  0.0%)     0.001 s. (  0.005 ms/b)
  <sd|sd>  ...          171 b.         0 skpd (  0.0%)     0.000 s. (  0.002 ms/b)
  <sd|pp>  ...          270 b.         0 skpd (  0.0%)     0.001 s. (  0.003 ms/b)
  <sd|pd>  ...          270 b.         0 skpd (  0.0%)     0.001 s. (  0.005 ms/b)
  <sd|dd>  ...          108 b.         0 skpd (  0.0%)     0.001 s. (  0.013 ms/b)
  <pp|pp>  ...          120 b.         0 skpd (  0.0%)     0.000 s. (  0.004 ms/b)
  <pp|pd>  ...          225 b.         0 skpd (  0.0%)     0.001 s. (  0.006 ms/b)
  <pp|dd>  ...           90 b.         0 skpd (  0.0%)     0.001 s. (  0.015 ms/b)
  <pd|pd>  ...          120 b.         0 skpd (  0.0%)     0.002 s. (  0.016 ms/b)
  <pd|dd>  ...           90 b.         0 skpd (  0.0%)     0.003 s. (  0.037 ms/b)
  <dd|dd>  ...           21 b.         0 skpd (  0.0%)     0.003 s. (  0.120 ms/b)


                                      INTEGRAL STATISTICS

Integral type statistics:
 Number of integrals retained            ...     222111 
 One   Center Integrals retained         ...     222111 (100.0%)
 Two   Center Integrals retained         ...          0 (  0.0%)
 Three Center Integrals retained         ...          0 (  0.0%)
 Four  Center Integrals retained         ...          0 (  0.0%)

Storage statistics:
 Number of char integrals                ...          0 (  0.0%)
 Number of short int integrals           ...          0 (  0.0%)
 Number of double/float integrals        ...     222111 (100.0%)
 Amount of memory used                   ...          2 MB
 Amount of memory estimated              ...          2 MB ( 95.1%)

Prescreening statistics:
 Total number of shell quadruples        ...       5565 
 Number of skipped shell quadruples      ...          0 (  0.0%)
 # of negligible batches done            ...          0 (  0.0%)

Timings:
 Total evaluation time               ...     0.175 sec (   0.003 min)
 One electron matrix time            ...     0.011 sec (   0.000 min) =  6.3%
 Schwartz matrix evaluation time     ...     0.073 sec (   0.001 min) = 41.6%
 Statistics run                      ...     0.002 sec (   0.000 min) =  1.0%
 Repulsion integral time             ...     0.019 sec (   0.000 min) = 10.8%

-------------------------------------------------------------------------------
                                 ORCA SCF
-------------------------------------------------------------------------------

------------
SCF SETTINGS
------------
Hamiltonian:
 Ab initio Hamiltonian  Method          .... Hartree-Fock(GTOs)


General Settings:
 Integral files         IntName         .... TMB06_C1_atom74
 Hartree-Fock type      HFTyp           .... ROHF
 Total Charge           Charge          ....    0
 Multiplicity           Mult            ....    5
 Number of Electrons    NEL             ....   14
 Basis Dimension        Dim             ....   36
 Nuclear Repulsion      ENuc            ....      0.0000000000 Eh

Convergence Acceleration:
 DIIS                   CNVDIIS         .... on
   Start iteration      DIISMaxIt       ....    12
   Startup error        DIISStart       ....  0.200000
   # of expansion vecs  DIISMaxEq       ....     5
   Bias factor          DIISBfac        ....   1.050
   Max. coefficient     DIISMaxC        ....  10.000
 Newton-Raphson         CNVNR           .... off
 SOSCF                  CNVSOSCF        .... off
 Level Shifting         CNVShift        .... on
   Level shift para.    LevelShift      ....    0.5000
   Turn off err/grad.   ShiftErr        ....    0.0010
 Zerner damping         CNVZerner       .... off
 Static damping         CNVDamp         .... on
   Fraction old density DampFac         ....    0.7000
   Max. Damping (<1)    DampMax         ....    0.9800
   Min. Damping (>=0)   DampMin         ....    0.0000
   Turn off err/grad.   DampErr         ....    0.1000
 Fernandez-Rico         CNVRico         .... off

SCF Procedure:
 Maximum # iterations   MaxIter         ....  1000
 SCF integral mode      SCFMode         .... Conventional
 Integral Threshold     Thresh          ....  1.000e-10 Eh
 Primitive CutOff       TCut            ....  1.000e-11 Eh
 Integral Buffer length BufferLength    .... 1048576
 Integral index format  IndFormat       ....     0
 Integral value format  ValFormat       ....     0
 Integral Storage       Thresh          ....  1.000e-10 Eh

Convergence Tolerance:
 Convergence Check Mode ConvCheckMode   .... Total+1el-Energy
 Convergence forced     ConvForced      .... 0
 Energy Change          TolE            ....  1.000e-06 Eh
 1-El. energy change                    ....  1.000e-03 Eh
 DIIS Error             TolErr          ....  1.000e-06


Diagonalization of the overlap matrix:
Smallest eigenvalue                        ... 1.776e-02
Time for diagonalization                   ...    0.000 sec
Threshold for overlap eigenvalues          ... 1.000e-08
Number of eigenvalues below threshold      ... 0
Time for construction of square roots      ...    0.000 sec
Total time needed                          ...    0.001 sec

--------------------
INITIAL GUESS: HCORE
--------------------
AVERAGE-CONFIGURATION (SAHF) CASE FOUND

-------------------
FINAL ROHF SETTINGS
-------------------
Number of operators             ... 2
  operator   0:   5 orbitals  10 electrons n(mue)= 2.000
  operator   1:   5 orbitals   4 electrons n(mue)= 0.800
Vector coupling coefficients a and b (Zerner convention):
   1.000    1.000           1.000    1.000 
   1.000    0.938           1.000    1.875 

                      -----------------
                      INTIAL GUESS DONE 
                      -----------------

 InCore treatment chosen:
   Memory dedicated               ...    1024 MB
   Memory needed                  ...      2 MB
   Number of tiny    integrals    ...       0
   Number of small   integrals    ...       0
   Number of regular integrals    ...  222111

--------------
SCF ITERATIONS
--------------
ITER       Energy         Delta-E        Max-DP      RMS-DP      [F,P]     Damp
  0    -61.6803036055   0.000000000000 2.33171705  0.08817109  0.6120920 0.7000
  1    -64.6432077342  -2.962904128693 1.63047221  0.06060860  0.2209982 0.7000
                            ****Activating DIIS****
  2    -64.7235504620  -0.080342727762 3.78886207  0.13638107  0.0607856 0.0000
  3    -64.8064136945  -0.082863232497 0.01313988  0.00054237  0.1745629 0.7000
  4    -64.8261913179  -0.019777623429 0.01313231  0.00052483  0.1606458 0.7000
  5    -64.8327826196  -0.006591301744 0.03094759  0.00126981  0.1583493 0.7000
  6    -64.7816451416   0.051137478034 0.01046924  0.00047563  0.1951570 0.7000
  7    -64.7867263332  -0.005081191553 0.87803986  0.03216649  0.1889106 0.7000
  8    -65.7631092958  -0.976382962667 2.05765412  0.07946683  0.0715743 0.0000
  9    -65.9956411013  -0.232531805479 0.00092583  0.00004736  0.1431185 0.7000
 10    -65.9982971117  -0.002656010391 0.00064803  0.00003135  0.1401890 0.7000
 11    -65.9987302711  -0.000433159364 0.00040768  0.00001231  0.1401485 0.7000
 12    -65.9980312435   0.000699027526 0.00536805  0.00028434  0.1412335 0.7000
 13    -65.9834371864   0.014594057149 0.03322763  0.00198315  0.1573242 0.7000
 14    -66.0687422871  -0.085305100732 0.21637731  0.00944399  0.0738197 0.0000
 15    -66.1322842434  -0.063541956303 0.13993136  0.00424327  0.0281693 0.0000
 16    -66.1423665564  -0.010082313033 0.21428121  0.00659184  0.0321615 0.0000
 17    -66.1548182590  -0.012451702522 0.08741566  0.00288803  0.0308743 0.0000
 18    -66.1581121081  -0.003293849169 0.03632615  0.00129717  0.0309993 0.0000
 19    -66.1593209903  -0.001208882152 0.06170851  0.00206039  0.0301359 0.0000
 20    -66.1608266035  -0.001505613250 0.07704097  0.00237635  0.0296645 0.0000
 21    -66.1620179597  -0.001191356128 0.01886268  0.00057279  0.0300069 0.0000
 22    -66.1622609543  -0.000242994674 0.02590481  0.00076792  0.0303528 0.0000
 23    -66.1619688038   0.000292150587 0.01502918  0.00045438  0.0303814 0.0000
 24    -66.1617709882   0.000197815591 0.01847584  0.00055890  0.0304384 0.0000
 25    -66.1620168080  -0.000245819809 0.04359451  0.00129019  0.0304803 0.0000
 26    -66.1624856655  -0.000468857500 0.00307143  0.00009289  0.0306137 0.0000
 27    -66.1624685904   0.000017075033 0.00347286  0.00010254  0.0307452 0.0000
 28    -66.1625015807  -0.000032990239 0.00254672  0.00007301  0.0307650 0.0000
 29    -66.1624823752   0.000019205439 0.01368920  0.00040086  0.0308161 0.0000
 30    -66.1626044743  -0.000122099024 0.01460662  0.00042897  0.0308502 0.0000
 31    -66.1627228597  -0.000118385418 0.00919415  0.00027219  0.0309019 0.0000
 32    -66.1627915042  -0.000068644503 0.00713737  0.00021149  0.0309369 0.0000
 33    -66.1628410610  -0.000049556850 0.00797915  0.00023597  0.0309532 0.0000
 34    -66.1628924239  -0.000051362844 0.00943457  0.00027756  0.0309645 0.0000
 35    -66.1629474782  -0.000055054333 0.01028606  0.00030273  0.0309669 0.0000
 36    -66.1630012957  -0.000053817493 0.01037796  0.00030637  0.0309610 0.0000
 37    -66.1630492997  -0.000048004010 0.01051961  0.00031185  0.0309454 0.0000
 38    -66.1630915462  -0.000042246515 0.01089779  0.00032488  0.0309200 0.0000
 39    -66.1631285091  -0.000036962878 0.01136012  0.00034146  0.0308841 0.0000
 40    -66.1631596647  -0.000031155621 0.01197416  0.00036407  0.0308365 0.0000
 41    -66.1631842218  -0.000024557069 0.01292104  0.00039885  0.0307752 0.0000
 42    -66.1632008140  -0.000016592197 0.01454560  0.00045763  0.0306965 0.0000
 43    -66.1632063774  -0.000005563425 0.01763249  0.00056711  0.0305929 0.0000
 44    -66.1631927623   0.000013615144 0.00758687  0.00022739  0.0304478 0.0000
 45    -66.1632017883  -0.000009026020 0.00543311  0.00016577  0.0304985 0.0000
 46    -66.1632059394  -0.000004151143 0.00299613  0.00009283  0.0305360 0.0000
 47    -66.1632073404  -0.000001400945 0.00112417  0.00003250  0.0305574 0.0000
                 **** Energy Check signals convergence ****

               *****************************************************
               *                     SUCCESS                       *
               *           SCF CONVERGED AFTER  48 CYCLES          *
               *****************************************************


----------------
TOTAL SCF ENERGY
----------------

Total Energy       :          -66.16320831 Eh           -1800.39243 eV

Components:
Nuclear Repulsion  :            0.00000000 Eh               0.00000 eV
Electronic Energy  :          -66.16320831 Eh           -1800.39243 eV
One Electron Energy:         -112.10588086 Eh           -3050.55611 eV
Two Electron Energy:           45.94267255 Eh            1250.16368 eV

Virial components:
Potential Energy   :          -89.11689781 Eh           -2424.99407 eV
Kinetic Energy     :           22.95368950 Eh             624.60165 eV
Virial Ratio       :            3.88246507


---------------
SCF CONVERGENCE
---------------

  Last Energy change         ...   -9.6908e-07  Tolerance :   1.0000e-06
  Last MAX-Density change    ...    6.8047e-04  Tolerance :   1.0000e-05
  Last RMS-Density change    ...    2.4543e-05  Tolerance :   1.0000e-06
  Last DIIS Error            ...    3.0544e-02  Tolerance :   1.0000e-06

             **** THE GBW FILE WAS UPDATED (TMB06_C1_atom74.gbw) ****
             **** DENSITY FILE WAS UPDATED (TMB06_C1_atom74.scfp) ****
             **** ENERGY FILE WAS UPDATED (TMB06_C1_atom74.en.tmp) ****
             **** THE GBW FILE WAS UPDATED (TMB06_C1_atom74.gbw) ****
             **** DENSITY FILE WAS UPDATED (TMB06_C1_atom74.scfp) ****
----------------
ORBITAL ENERGIES
----------------

  NO   OCC          E(Eh)            E(eV) 
   0   2.0000      -3.423484       -93.1577 
   1   2.0000      -1.908377       -51.9296 
   2   2.0000      -1.908023       -51.9199 
   3   2.0000      -1.906485       -51.8781 
   4   2.0000      -0.323315        -8.7979 
   5   0.8000      -0.374724       -10.1968 
   6   0.8000      -0.361122        -9.8266 
   7   0.8000      -0.360422        -9.8076 
   8   0.8000      -0.332411        -9.0454 
   9   0.8000      -0.172256        -4.6873 
  10   0.0000      -0.021954        -0.5974 
  11   0.0000      -0.021717        -0.5909 
  12   0.0000      -0.035574        -0.9680 
  13   0.0000       0.080642         2.1944 
  14   0.0000       0.085719         2.3325 
  15   0.0000       0.086016         2.3406 
  16   0.0000       0.123365         3.3569 
  17   0.0000       0.234931         6.3928 
  18   0.0000       0.228096         6.2068 
  19   0.0000       0.228347         6.2136 
  20   0.0000       0.226222         6.1558 
  21   0.0000       0.257448         7.0055 
  22   0.0000       0.782237        21.2857 
  23   0.0000       0.803292        21.8587 
  24   0.0000       0.804151        21.8821 
  25   0.0000       1.189558        32.3695 
  26   0.0000       1.178461        32.0676 
  27   0.0000       1.178967        32.0813 
  28   0.0000       1.178199        32.0604 
  29   0.0000       1.209575        32.9142 
  30   0.0000       1.682475        45.7825 
  31   0.0000      37.234855      1013.2119 
  32   0.0000      37.244035      1013.4617 
  33   0.0000      37.244839      1013.4836 
  34   0.0000      69.661199      1895.5776 
  35   0.0000     582.639328     15854.4221 
CleanUpVectors: The p-vectors have cracked symmetry
CleanUpVectors: The p-vectors have cracked symmetry
CleanUpVectors: The p-vectors have cracked symmetry
CleanUpVectors: The d-vectors have cracked symmetry at i=4
CleanUpVectors: The d-vectors have cracked symmetry at i=6
CleanUpVectors: The d-vectors have cracked symmetry at i=7
CleanUpVectors: The d-vectors have cracked symmetry at i=8
CleanUpVectors: The p-vectors have cracked symmetry
CleanUpVectors: The p-vectors have cracked symmetry
CleanUpVectors: The p-vectors have cracked symmetry
CleanUpVectors: The d-vectors have cracked symmetry at i=12
CleanUpVectors: The p-vectors have cracked symmetry
CleanUpVectors: The p-vectors have cracked symmetry
CleanUpVectors: The p-vectors have cracked symmetry
CleanUpVectors: The d-vectors have cracked symmetry at i=17
CleanUpVectors: The d-vectors have cracked symmetry at i=18
CleanUpVectors: The d-vectors have cracked symmetry at i=19
CleanUpVectors: The d-vectors have cracked symmetry at i=20
CleanUpVectors: The d-vectors have cracked symmetry at i=21
CleanUpVectors: The p-vectors have cracked symmetry
CleanUpVectors: The p-vectors have cracked symmetry
CleanUpVectors: The p-vectors have cracked symmetry
CleanUpVectors: The d-vectors have cracked symmetry at i=25
CleanUpVectors: The d-vectors have cracked symmetry at i=26
CleanUpVectors: The d-vectors have cracked symmetry at i=27
CleanUpVectors: The d-vectors have cracked symmetry at i=28
CleanUpVectors: The d-vectors have cracked symmetry at i=29
CleanUpVectors: The p-vectors have cracked symmetry
CleanUpVectors: The p-vectors have cracked symmetry
CleanUpVectors: The p-vectors have cracked symmetry
--------------------------
ATOM BASIS FOR ELEMENT W 
--------------------------
 NewGTO W 
 S 8
    1         30.000000000000        -0.325019913468
    2         27.000000000000         0.470622275451
    3         13.078045684000        -0.430378976467
    4          4.810044971700         0.821608577314
    5          0.984978042600        -0.923568024337
    6          0.449104853400        -0.383051746239
    7          0.114483529200        -0.010968300902
    8          0.041720422000         0.002374675505
 P 22
    1         17.000000000000        -0.001081847776
    2         12.431973432000         0.003119771337
    3          5.158621765800        -0.008410405290
    4          1.280145481200         0.014749907212
    5         17.000000000000        -0.036155415709
    6         12.431973432000         0.104262939861
    7          5.158621765800        -0.281076234854
    8          1.280145481200         0.492942758513
    9         17.000000000000         0.000655682639
   10         12.431973432000        -0.001890820453
   11          5.158621765800         0.005097349973
   12          1.280145481200        -0.008939573842
   13          0.628567909000         0.014860494673
   14          0.628567909000         0.496638597888
   15          0.628567909000        -0.009006598316
   16          0.293804235500         0.005087257043
   17          0.293804235500         0.170016426825
   18          0.293804235500        -0.003083267531
   19          0.065000000000         0.000251171316
   20          0.065000000000         0.008394160030
   21          0.065000000000        -0.000152229061
   22          0.027938779000        -0.000068669231
 D 22
    1         30.000000000000         0.000000899720
    2         27.000000000000        -0.000001447529
    3         13.078045684000         0.000002732920
    4          4.810044971700        -0.000014896884
    5          0.984978042600         0.000141114648
    6          0.449104853400        -0.000060704900
    7          0.114483529200        -0.001089868021
    8          0.041720422000         0.001672658325
    9          7.406473731500         0.003313764398
   10          5.902626860300        -0.006729899765
   11          1.298475675000         0.021006037813
   12          0.571535085400         0.036306749590
   13          7.406473731500        -0.001493205287
   14          5.902626860300         0.003032539645
   15          1.298475675000        -0.009465466749
   16          0.571535085400        -0.016360073902
   17          7.406473731500        -0.012387066313
   18          5.902626860300         0.025156801949
   19          1.298475675000        -0.078521932192
   20          0.571535085400        -0.135716985505
   21          7.406473731500        -0.036580400399
   22          5.902626860300         0.074290866361
 S 8
    1         30.000000000000        -2.059109919814
    2         27.000000000000         2.981549608842
    3         13.078045684000        -2.726594842348
    4          4.810044971700         1.219435358936
    5          0.984978042600        -0.571831949384
    6          0.449104853400         0.390115631632
    7          0.114483529200        -0.132827681951
    8          0.041720422000         0.049555925409
 D 22
    1         30.000000000000        -0.000018297532
    2         27.000000000000         0.000029438285
    3         13.078045684000        -0.000055579162
    4          4.810044971700         0.000281082534
    5          0.984978042600        -0.000068437518
    6          0.449104853400        -0.010957088373
    7          0.114483529200         0.024586718538
    8          0.041720422000         0.110641661693
    9          7.406473731500        -0.032030568915
   10          5.902626860300         0.065050647034
   11          1.298475675000        -0.203042600794
   12          0.571535085400        -0.350937998335
   13          7.406473731500         0.001407722029
   14          5.902626860300        -0.002858932325
   15          1.298475675000         0.008923586179
   16          0.571535085400         0.015423489747
   17          7.406473731500        -0.020735741882
   18          5.902626860300         0.042112065812
   19          1.298475675000        -0.131444401513
   20          0.571535085400        -0.227187964391
   21          7.406473731500         0.004101448941
   22          5.902626860300        -0.008329602516
 P 22
    1         17.000000000000         0.001605677740
    2         12.431973432000        -0.004630362515
    3          5.158621765800         0.012482717863
    4          1.280145481200        -0.021891802344
    5         17.000000000000        -0.000130640011
    6         12.431973432000         0.000376732265
    7          5.158621765800        -0.001015610020
    8          1.280145481200         0.001781145265
    9         17.000000000000        -0.004554406120
   10         12.431973432000         0.013133738392
   11          5.158621765800        -0.035406461219
   12          1.280145481200         0.062094750456
   13          0.628567909000        -0.042709324168
   14          0.628567909000         0.003474885682
   15          0.628567909000         0.121142370311
   16          0.293804235500         0.023903281386
   17          0.293804235500        -0.001944801794
   18          0.293804235500        -0.067800187002
   19          0.065000000000         0.002723595776
   20          0.065000000000        -0.000221595264
   21          0.065000000000        -0.007725311849
   22          0.027938779000         0.327069559162
 P 22
    1         17.000000000000        -0.000252049801
    2         12.431973432000         0.000726846938
    3          5.158621765800        -0.001959463266
    4          1.280145481200         0.003436445731
    5         17.000000000000        -0.008423519021
    6         12.431973432000         0.024291267018
    7          5.158621765800        -0.065485376513
    8          1.280145481200         0.114846216569
    9         17.000000000000         0.000152761490
   10         12.431973432000        -0.000440524932
   11          5.158621765800         0.001187584865
   12          1.280145481200        -0.002082749399
   13          0.628567909000         0.004930119247
   14          0.628567909000         0.164764872514
   15          0.628567909000        -0.002988029989
   16          0.293804235500         0.003091588795
   17          0.293804235500         0.103321077676
   18          0.293804235500        -0.001873739675
   19          0.065000000000        -0.054038798701
   20          0.065000000000        -1.805979801357
   21          0.065000000000         0.032751652245
   22          0.027938779000         0.043204990154
 P 22
    1         17.000000000000         0.078010734074
    2         12.431973432000        -0.224962936138
    3          5.158621765800         0.606464148774
    4          1.280145481200        -1.063597961570
    5         17.000000000000        -0.006347054133
    6         12.431973432000         0.018303275190
    7          5.158621765800        -0.049342706840
    8          1.280145481200         0.086535704574
    9         17.000000000000        -0.221272647306
   10         12.431973432000         0.638093526690
   11          5.158621765800        -1.720198243078
   12          1.280145481200         3.016830176246
   13          0.628567909000         1.306027169989
   14          0.628567909000        -0.106260058247
   15          0.628567909000        -3.704465709584
   16          0.293804235500        -0.659702858454
   17          0.293804235500         0.053674277057
   18          0.293804235500         1.871206567379
   19          0.065000000000         0.198768453401
   20          0.065000000000        -0.016172058225
   21          0.065000000000        -0.563794488117
   22          0.027938779000        -0.093899153587
 D 22
    1         30.000000000000         0.000061086821
    2         27.000000000000        -0.000098280537
    3         13.078045684000         0.000185552583
    4          4.810044971700        -0.001003353295
    5          0.984978042600         0.005881872840
    6          0.449104853400         0.024561100006
    7          0.114483529200        -0.275212326386
    8          0.041720422000         0.354981532227
    9          7.406473731500        -0.012894042110
   10          5.902626860300         0.026186415370
   11          1.298475675000        -0.081735664818
   12          0.571535085400        -0.141271587793
   13          7.406473731500         0.000558702825
   14          5.902626860300        -0.001134665461
   15          1.298475675000         0.003541631586
   16          0.571535085400         0.006121341505
   17          7.406473731500        -0.008433336613
   18          5.902626860300         0.017127201355
   19          1.298475675000        -0.053459137856
   20          0.571535085400        -0.092398554582
   21          7.406473731500         0.001436902257
   22          5.902626860300        -0.002918194236
 D 22
    1         30.000000000000         0.000001276814
    2         27.000000000000        -0.000002054224
    3         13.078045684000         0.000003878352
    4          4.810044971700        -0.000021774602
    5          0.984978042600         0.000283271596
    6          0.449104853400        -0.000474513784
    7          0.114483529200        -0.000245597730
    8          0.041720422000         0.001147854843
    9          7.406473731500         0.007714173278
   10          5.902626860300        -0.015666657822
   11          1.298475675000         0.048900342964
   12          0.571535085400         0.084519152191
   13          7.406473731500        -0.002913013408
   14          5.902626860300         0.005916017525
   15          1.298475675000        -0.018465666975
   16          0.571535085400        -0.031915983053
   17          7.406473731500        -0.022764125375
   18          5.902626860300         0.046231494942
   19          1.298475675000        -0.144302376680
   20          0.571535085400        -0.249411635927
   21          7.406473731500        -0.070049293492
   22          5.902626860300         0.142262595398
 P 22
    1         17.000000000000        -0.221247676408
    2         12.431973432000         0.638021517030
    3          5.158621765800        -1.720004116535
    4          1.280145481200         3.016489723152
    5         17.000000000000         0.005202925291
    6         12.431973432000        -0.015003901245
    7          5.158621765800         0.040448121601
    8          1.280145481200        -0.070936657626
    9         17.000000000000        -0.078151172808
   10         12.431973432000         0.225367925404
   11          5.158621765800        -0.607555935157
   12          1.280145481200         1.065512702571
   13          0.628567909000        -3.704291472902
   14          0.628567909000         0.087111205433
   15          0.628567909000        -1.308464467194
   16          0.293804235500         1.871273488007
   17          0.293804235500        -0.044005416536
   18          0.293804235500         0.660988716836
   19          0.065000000000        -0.563903373764
   20          0.065000000000         0.013260917235
   21          0.065000000000        -0.199187221875
   22          0.027938779000         0.266351795720
 end
  // -----------------------------------------------
  // The basis set
  // -----------------------------------------------
  BAS[ATNO] = new BFNGauss[NSH];
  // Basis function   1 L = s
  InitBFNGauss(BAS[ATNO][  0]);
  BAS[ATNO][  0].l  = 0;
  BAS[ATNO][  0].ng = 8;
  BAS[ATNO][  0].a[  0] =        30.000000000000;     BAS[ATNO][  0].d[  0] =         0.325019913468;
  BAS[ATNO][  0].a[  1] =        27.000000000000;     BAS[ATNO][  0].d[  1] =        -0.470622275451;
  BAS[ATNO][  0].a[  2] =        13.078045684000;     BAS[ATNO][  0].d[  2] =         0.430378976467;
  BAS[ATNO][  0].a[  3] =         4.810044971700;     BAS[ATNO][  0].d[  3] =        -0.821608577314;
  BAS[ATNO][  0].a[  4] =         0.984978042600;     BAS[ATNO][  0].d[  4] =         0.923568024337;
  BAS[ATNO][  0].a[  5] =         0.449104853400;     BAS[ATNO][  0].d[  5] =         0.383051746239;
  BAS[ATNO][  0].a[  6] =         0.114483529200;     BAS[ATNO][  0].d[  6] =         0.010968300902;
  BAS[ATNO][  0].a[  7] =         0.041720422000;     BAS[ATNO][  0].d[  7] =        -0.002374675505;

  // Basis function   2 L = p
  InitBFNGauss(BAS[ATNO][  1]);
  BAS[ATNO][  1].l  = 1;
  BAS[ATNO][  1].ng = 22;
  BAS[ATNO][  1].a[  0] =        17.000000000000;     BAS[ATNO][  1].d[  0] =        -0.001081847776;
  BAS[ATNO][  1].a[  1] =        12.431973432000;     BAS[ATNO][  1].d[  1] =         0.003119771337;
  BAS[ATNO][  1].a[  2] =         5.158621765800;     BAS[ATNO][  1].d[  2] =        -0.008410405290;
  BAS[ATNO][  1].a[  3] =         1.280145481200;     BAS[ATNO][  1].d[  3] =         0.014749907212;
  BAS[ATNO][  1].a[  4] =        17.000000000000;     BAS[ATNO][  1].d[  4] =        -0.036155415709;
  BAS[ATNO][  1].a[  5] =        12.431973432000;     BAS[ATNO][  1].d[  5] =         0.104262939861;
  BAS[ATNO][  1].a[  6] =         5.158621765800;     BAS[ATNO][  1].d[  6] =        -0.281076234854;
  BAS[ATNO][  1].a[  7] =         1.280145481200;     BAS[ATNO][  1].d[  7] =         0.492942758513;
  BAS[ATNO][  1].a[  8] =        17.000000000000;     BAS[ATNO][  1].d[  8] =         0.000655682639;
  BAS[ATNO][  1].a[  9] =        12.431973432000;     BAS[ATNO][  1].d[  9] =        -0.001890820453;
  BAS[ATNO][  1].a[ 10] =         5.158621765800;     BAS[ATNO][  1].d[ 10] =         0.005097349973;
  BAS[ATNO][  1].a[ 11] =         1.280145481200;     BAS[ATNO][  1].d[ 11] =        -0.008939573842;
  BAS[ATNO][  1].a[ 12] =         0.628567909000;     BAS[ATNO][  1].d[ 12] =         0.014860494673;
  BAS[ATNO][  1].a[ 13] =         0.628567909000;     BAS[ATNO][  1].d[ 13] =         0.496638597888;
  BAS[ATNO][  1].a[ 14] =         0.628567909000;     BAS[ATNO][  1].d[ 14] =        -0.009006598316;
  BAS[ATNO][  1].a[ 15] =         0.293804235500;     BAS[ATNO][  1].d[ 15] =         0.005087257043;
  BAS[ATNO][  1].a[ 16] =         0.293804235500;     BAS[ATNO][  1].d[ 16] =         0.170016426825;
  BAS[ATNO][  1].a[ 17] =         0.293804235500;     BAS[ATNO][  1].d[ 17] =        -0.003083267531;
  BAS[ATNO][  1].a[ 18] =         0.065000000000;     BAS[ATNO][  1].d[ 18] =         0.000251171316;
  BAS[ATNO][  1].a[ 19] =         0.065000000000;     BAS[ATNO][  1].d[ 19] =         0.008394160030;
  BAS[ATNO][  1].a[ 20] =         0.065000000000;     BAS[ATNO][  1].d[ 20] =        -0.000152229061;
  BAS[ATNO][  1].a[ 21] =         0.027938779000;     BAS[ATNO][  1].d[ 21] =        -0.000068669231;

  // Basis function   3 L = d
  InitBFNGauss(BAS[ATNO][  2]);
  BAS[ATNO][  2].l  = 2;
  BAS[ATNO][  2].ng = 22;
  BAS[ATNO][  2].a[  0] =        30.000000000000;     BAS[ATNO][  2].d[  0] =        -0.000000899720;
  BAS[ATNO][  2].a[  1] =        27.000000000000;     BAS[ATNO][  2].d[  1] =         0.000001447529;
  BAS[ATNO][  2].a[  2] =        13.078045684000;     BAS[ATNO][  2].d[  2] =        -0.000002732920;
  BAS[ATNO][  2].a[  3] =         4.810044971700;     BAS[ATNO][  2].d[  3] =         0.000014896884;
  BAS[ATNO][  2].a[  4] =         0.984978042600;     BAS[ATNO][  2].d[  4] =        -0.000141114648;
  BAS[ATNO][  2].a[  5] =         0.449104853400;     BAS[ATNO][  2].d[  5] =         0.000060704900;
  BAS[ATNO][  2].a[  6] =         0.114483529200;     BAS[ATNO][  2].d[  6] =         0.001089868021;
  BAS[ATNO][  2].a[  7] =         0.041720422000;     BAS[ATNO][  2].d[  7] =        -0.001672658325;
  BAS[ATNO][  2].a[  8] =         7.406473731500;     BAS[ATNO][  2].d[  8] =        -0.003313764398;
  BAS[ATNO][  2].a[  9] =         5.902626860300;     BAS[ATNO][  2].d[  9] =         0.006729899765;
  BAS[ATNO][  2].a[ 10] =         1.298475675000;     BAS[ATNO][  2].d[ 10] =        -0.021006037813;
  BAS[ATNO][  2].a[ 11] =         0.571535085400;     BAS[ATNO][  2].d[ 11] =        -0.036306749590;
  BAS[ATNO][  2].a[ 12] =         7.406473731500;     BAS[ATNO][  2].d[ 12] =         0.001493205287;
  BAS[ATNO][  2].a[ 13] =         5.902626860300;     BAS[ATNO][  2].d[ 13] =        -0.003032539645;
  BAS[ATNO][  2].a[ 14] =         1.298475675000;     BAS[ATNO][  2].d[ 14] =         0.009465466749;
  BAS[ATNO][  2].a[ 15] =         0.571535085400;     BAS[ATNO][  2].d[ 15] =         0.016360073902;
  BAS[ATNO][  2].a[ 16] =         7.406473731500;     BAS[ATNO][  2].d[ 16] =         0.012387066313;
  BAS[ATNO][  2].a[ 17] =         5.902626860300;     BAS[ATNO][  2].d[ 17] =        -0.025156801949;
  BAS[ATNO][  2].a[ 18] =         1.298475675000;     BAS[ATNO][  2].d[ 18] =         0.078521932192;
  BAS[ATNO][  2].a[ 19] =         0.571535085400;     BAS[ATNO][  2].d[ 19] =         0.135716985505;
  BAS[ATNO][  2].a[ 20] =         7.406473731500;     BAS[ATNO][  2].d[ 20] =         0.036580400399;
  BAS[ATNO][  2].a[ 21] =         5.902626860300;     BAS[ATNO][  2].d[ 21] =        -0.074290866361;

  // Basis function   4 L = s
  InitBFNGauss(BAS[ATNO][  3]);
  BAS[ATNO][  3].l  = 0;
  BAS[ATNO][  3].ng = 8;
  BAS[ATNO][  3].a[  0] =        30.000000000000;     BAS[ATNO][  3].d[  0] =        -2.059109919814;
  BAS[ATNO][  3].a[  1] =        27.000000000000;     BAS[ATNO][  3].d[  1] =         2.981549608842;
  BAS[ATNO][  3].a[  2] =        13.078045684000;     BAS[ATNO][  3].d[  2] =        -2.726594842348;
  BAS[ATNO][  3].a[  3] =         4.810044971700;     BAS[ATNO][  3].d[  3] =         1.219435358936;
  BAS[ATNO][  3].a[  4] =         0.984978042600;     BAS[ATNO][  3].d[  4] =        -0.571831949384;
  BAS[ATNO][  3].a[  5] =         0.449104853400;     BAS[ATNO][  3].d[  5] =         0.390115631632;
  BAS[ATNO][  3].a[  6] =         0.114483529200;     BAS[ATNO][  3].d[  6] =        -0.132827681951;
  BAS[ATNO][  3].a[  7] =         0.041720422000;     BAS[ATNO][  3].d[  7] =         0.049555925409;

  // Basis function   5 L = d
  InitBFNGauss(BAS[ATNO][  4]);
  BAS[ATNO][  4].l  = 2;
  BAS[ATNO][  4].ng = 22;
  BAS[ATNO][  4].a[  0] =        30.000000000000;     BAS[ATNO][  4].d[  0] =         0.000018297532;
  BAS[ATNO][  4].a[  1] =        27.000000000000;     BAS[ATNO][  4].d[  1] =        -0.000029438285;
  BAS[ATNO][  4].a[  2] =        13.078045684000;     BAS[ATNO][  4].d[  2] =         0.000055579162;
  BAS[ATNO][  4].a[  3] =         4.810044971700;     BAS[ATNO][  4].d[  3] =        -0.000281082534;
  BAS[ATNO][  4].a[  4] =         0.984978042600;     BAS[ATNO][  4].d[  4] =         0.000068437518;
  BAS[ATNO][  4].a[  5] =         0.449104853400;     BAS[ATNO][  4].d[  5] =         0.010957088373;
  BAS[ATNO][  4].a[  6] =         0.114483529200;     BAS[ATNO][  4].d[  6] =        -0.024586718538;
  BAS[ATNO][  4].a[  7] =         0.041720422000;     BAS[ATNO][  4].d[  7] =        -0.110641661693;
  BAS[ATNO][  4].a[  8] =         7.406473731500;     BAS[ATNO][  4].d[  8] =         0.032030568915;
  BAS[ATNO][  4].a[  9] =         5.902626860300;     BAS[ATNO][  4].d[  9] =        -0.065050647034;
  BAS[ATNO][  4].a[ 10] =         1.298475675000;     BAS[ATNO][  4].d[ 10] =         0.203042600794;
  BAS[ATNO][  4].a[ 11] =         0.571535085400;     BAS[ATNO][  4].d[ 11] =         0.350937998335;
  BAS[ATNO][  4].a[ 12] =         7.406473731500;     BAS[ATNO][  4].d[ 12] =        -0.001407722029;
  BAS[ATNO][  4].a[ 13] =         5.902626860300;     BAS[ATNO][  4].d[ 13] =         0.002858932325;
  BAS[ATNO][  4].a[ 14] =         1.298475675000;     BAS[ATNO][  4].d[ 14] =        -0.008923586179;
  BAS[ATNO][  4].a[ 15] =         0.571535085400;     BAS[ATNO][  4].d[ 15] =        -0.015423489747;
  BAS[ATNO][  4].a[ 16] =         7.406473731500;     BAS[ATNO][  4].d[ 16] =         0.020735741882;
  BAS[ATNO][  4].a[ 17] =         5.902626860300;     BAS[ATNO][  4].d[ 17] =        -0.042112065812;
  BAS[ATNO][  4].a[ 18] =         1.298475675000;     BAS[ATNO][  4].d[ 18] =         0.131444401513;
  BAS[ATNO][  4].a[ 19] =         0.571535085400;     BAS[ATNO][  4].d[ 19] =         0.227187964391;
  BAS[ATNO][  4].a[ 20] =         7.406473731500;     BAS[ATNO][  4].d[ 20] =        -0.004101448941;
  BAS[ATNO][  4].a[ 21] =         5.902626860300;     BAS[ATNO][  4].d[ 21] =         0.008329602516;

  // Basis function   6 L = p
  InitBFNGauss(BAS[ATNO][  5]);
  BAS[ATNO][  5].l  = 1;
  BAS[ATNO][  5].ng = 22;
  BAS[ATNO][  5].a[  0] =        17.000000000000;     BAS[ATNO][  5].d[  0] =         0.001605677740;
  BAS[ATNO][  5].a[  1] =        12.431973432000;     BAS[ATNO][  5].d[  1] =        -0.004630362515;
  BAS[ATNO][  5].a[  2] =         5.158621765800;     BAS[ATNO][  5].d[  2] =         0.012482717863;
  BAS[ATNO][  5].a[  3] =         1.280145481200;     BAS[ATNO][  5].d[  3] =        -0.021891802344;
  BAS[ATNO][  5].a[  4] =        17.000000000000;     BAS[ATNO][  5].d[  4] =        -0.000130640011;
  BAS[ATNO][  5].a[  5] =        12.431973432000;     BAS[ATNO][  5].d[  5] =         0.000376732265;
  BAS[ATNO][  5].a[  6] =         5.158621765800;     BAS[ATNO][  5].d[  6] =        -0.001015610020;
  BAS[ATNO][  5].a[  7] =         1.280145481200;     BAS[ATNO][  5].d[  7] =         0.001781145265;
  BAS[ATNO][  5].a[  8] =        17.000000000000;     BAS[ATNO][  5].d[  8] =        -0.004554406120;
  BAS[ATNO][  5].a[  9] =        12.431973432000;     BAS[ATNO][  5].d[  9] =         0.013133738392;
  BAS[ATNO][  5].a[ 10] =         5.158621765800;     BAS[ATNO][  5].d[ 10] =        -0.035406461219;
  BAS[ATNO][  5].a[ 11] =         1.280145481200;     BAS[ATNO][  5].d[ 11] =         0.062094750456;
  BAS[ATNO][  5].a[ 12] =         0.628567909000;     BAS[ATNO][  5].d[ 12] =        -0.042709324168;
  BAS[ATNO][  5].a[ 13] =         0.628567909000;     BAS[ATNO][  5].d[ 13] =         0.003474885682;
  BAS[ATNO][  5].a[ 14] =         0.628567909000;     BAS[ATNO][  5].d[ 14] =         0.121142370311;
  BAS[ATNO][  5].a[ 15] =         0.293804235500;     BAS[ATNO][  5].d[ 15] =         0.023903281386;
  BAS[ATNO][  5].a[ 16] =         0.293804235500;     BAS[ATNO][  5].d[ 16] =        -0.001944801794;
  BAS[ATNO][  5].a[ 17] =         0.293804235500;     BAS[ATNO][  5].d[ 17] =        -0.067800187002;
  BAS[ATNO][  5].a[ 18] =         0.065000000000;     BAS[ATNO][  5].d[ 18] =         0.002723595776;
  BAS[ATNO][  5].a[ 19] =         0.065000000000;     BAS[ATNO][  5].d[ 19] =        -0.000221595264;
  BAS[ATNO][  5].a[ 20] =         0.065000000000;     BAS[ATNO][  5].d[ 20] =        -0.007725311849;
  BAS[ATNO][  5].a[ 21] =         0.027938779000;     BAS[ATNO][  5].d[ 21] =         0.327069559162;

  // Basis function   7 L = p
  InitBFNGauss(BAS[ATNO][  6]);
  BAS[ATNO][  6].l  = 1;
  BAS[ATNO][  6].ng = 22;
  BAS[ATNO][  6].a[  0] =        17.000000000000;     BAS[ATNO][  6].d[  0] =         0.000252049801;
  BAS[ATNO][  6].a[  1] =        12.431973432000;     BAS[ATNO][  6].d[  1] =        -0.000726846938;
  BAS[ATNO][  6].a[  2] =         5.158621765800;     BAS[ATNO][  6].d[  2] =         0.001959463266;
  BAS[ATNO][  6].a[  3] =         1.280145481200;     BAS[ATNO][  6].d[  3] =        -0.003436445731;
  BAS[ATNO][  6].a[  4] =        17.000000000000;     BAS[ATNO][  6].d[  4] =         0.008423519021;
  BAS[ATNO][  6].a[  5] =        12.431973432000;     BAS[ATNO][  6].d[  5] =        -0.024291267018;
  BAS[ATNO][  6].a[  6] =         5.158621765800;     BAS[ATNO][  6].d[  6] =         0.065485376513;
  BAS[ATNO][  6].a[  7] =         1.280145481200;     BAS[ATNO][  6].d[  7] =        -0.114846216569;
  BAS[ATNO][  6].a[  8] =        17.000000000000;     BAS[ATNO][  6].d[  8] =        -0.000152761490;
  BAS[ATNO][  6].a[  9] =        12.431973432000;     BAS[ATNO][  6].d[  9] =         0.000440524932;
  BAS[ATNO][  6].a[ 10] =         5.158621765800;     BAS[ATNO][  6].d[ 10] =        -0.001187584865;
  BAS[ATNO][  6].a[ 11] =         1.280145481200;     BAS[ATNO][  6].d[ 11] =         0.002082749399;
  BAS[ATNO][  6].a[ 12] =         0.628567909000;     BAS[ATNO][  6].d[ 12] =        -0.004930119247;
  BAS[ATNO][  6].a[ 13] =         0.628567909000;     BAS[ATNO][  6].d[ 13] =        -0.164764872514;
  BAS[ATNO][  6].a[ 14] =         0.628567909000;     BAS[ATNO][  6].d[ 14] =         0.002988029989;
  BAS[ATNO][  6].a[ 15] =         0.293804235500;     BAS[ATNO][  6].d[ 15] =        -0.003091588795;
  BAS[ATNO][  6].a[ 16] =         0.293804235500;     BAS[ATNO][  6].d[ 16] =        -0.103321077676;
  BAS[ATNO][  6].a[ 17] =         0.293804235500;     BAS[ATNO][  6].d[ 17] =         0.001873739675;
  BAS[ATNO][  6].a[ 18] =         0.065000000000;     BAS[ATNO][  6].d[ 18] =         0.054038798701;
  BAS[ATNO][  6].a[ 19] =         0.065000000000;     BAS[ATNO][  6].d[ 19] =         1.805979801357;
  BAS[ATNO][  6].a[ 20] =         0.065000000000;     BAS[ATNO][  6].d[ 20] =        -0.032751652245;
  BAS[ATNO][  6].a[ 21] =         0.027938779000;     BAS[ATNO][  6].d[ 21] =        -0.043204990154;

  // Basis function   8 L = p
  InitBFNGauss(BAS[ATNO][  7]);
  BAS[ATNO][  7].l  = 1;
  BAS[ATNO][  7].ng = 22;
  BAS[ATNO][  7].a[  0] =        17.000000000000;     BAS[ATNO][  7].d[  0] =        -0.078010734074;
  BAS[ATNO][  7].a[  1] =        12.431973432000;     BAS[ATNO][  7].d[  1] =         0.224962936138;
  BAS[ATNO][  7].a[  2] =         5.158621765800;     BAS[ATNO][  7].d[  2] =        -0.606464148774;
  BAS[ATNO][  7].a[  3] =         1.280145481200;     BAS[ATNO][  7].d[  3] =         1.063597961570;
  BAS[ATNO][  7].a[  4] =        17.000000000000;     BAS[ATNO][  7].d[  4] =         0.006347054133;
  BAS[ATNO][  7].a[  5] =        12.431973432000;     BAS[ATNO][  7].d[  5] =        -0.018303275190;
  BAS[ATNO][  7].a[  6] =         5.158621765800;     BAS[ATNO][  7].d[  6] =         0.049342706840;
  BAS[ATNO][  7].a[  7] =         1.280145481200;     BAS[ATNO][  7].d[  7] =        -0.086535704574;
  BAS[ATNO][  7].a[  8] =        17.000000000000;     BAS[ATNO][  7].d[  8] =         0.221272647306;
  BAS[ATNO][  7].a[  9] =        12.431973432000;     BAS[ATNO][  7].d[  9] =        -0.638093526690;
  BAS[ATNO][  7].a[ 10] =         5.158621765800;     BAS[ATNO][  7].d[ 10] =         1.720198243078;
  BAS[ATNO][  7].a[ 11] =         1.280145481200;     BAS[ATNO][  7].d[ 11] =        -3.016830176246;
  BAS[ATNO][  7].a[ 12] =         0.628567909000;     BAS[ATNO][  7].d[ 12] =        -1.306027169989;
  BAS[ATNO][  7].a[ 13] =         0.628567909000;     BAS[ATNO][  7].d[ 13] =         0.106260058247;
  BAS[ATNO][  7].a[ 14] =         0.628567909000;     BAS[ATNO][  7].d[ 14] =         3.704465709584;
  BAS[ATNO][  7].a[ 15] =         0.293804235500;     BAS[ATNO][  7].d[ 15] =         0.659702858454;
  BAS[ATNO][  7].a[ 16] =         0.293804235500;     BAS[ATNO][  7].d[ 16] =        -0.053674277057;
  BAS[ATNO][  7].a[ 17] =         0.293804235500;     BAS[ATNO][  7].d[ 17] =        -1.871206567379;
  BAS[ATNO][  7].a[ 18] =         0.065000000000;     BAS[ATNO][  7].d[ 18] =        -0.198768453401;
  BAS[ATNO][  7].a[ 19] =         0.065000000000;     BAS[ATNO][  7].d[ 19] =         0.016172058225;
  BAS[ATNO][  7].a[ 20] =         0.065000000000;     BAS[ATNO][  7].d[ 20] =         0.563794488117;
  BAS[ATNO][  7].a[ 21] =         0.027938779000;     BAS[ATNO][  7].d[ 21] =         0.093899153587;

  // Basis function   9 L = d
  InitBFNGauss(BAS[ATNO][  8]);
  BAS[ATNO][  8].l  = 2;
  BAS[ATNO][  8].ng = 22;
  BAS[ATNO][  8].a[  0] =        30.000000000000;     BAS[ATNO][  8].d[  0] =         0.000061086821;
  BAS[ATNO][  8].a[  1] =        27.000000000000;     BAS[ATNO][  8].d[  1] =        -0.000098280537;
  BAS[ATNO][  8].a[  2] =        13.078045684000;     BAS[ATNO][  8].d[  2] =         0.000185552583;
  BAS[ATNO][  8].a[  3] =         4.810044971700;     BAS[ATNO][  8].d[  3] =        -0.001003353295;
  BAS[ATNO][  8].a[  4] =         0.984978042600;     BAS[ATNO][  8].d[  4] =         0.005881872840;
  BAS[ATNO][  8].a[  5] =         0.449104853400;     BAS[ATNO][  8].d[  5] =         0.024561100006;
  BAS[ATNO][  8].a[  6] =         0.114483529200;     BAS[ATNO][  8].d[  6] =        -0.275212326386;
  BAS[ATNO][  8].a[  7] =         0.041720422000;     BAS[ATNO][  8].d[  7] =         0.354981532227;
  BAS[ATNO][  8].a[  8] =         7.406473731500;     BAS[ATNO][  8].d[  8] =        -0.012894042110;
  BAS[ATNO][  8].a[  9] =         5.902626860300;     BAS[ATNO][  8].d[  9] =         0.026186415370;
  BAS[ATNO][  8].a[ 10] =         1.298475675000;     BAS[ATNO][  8].d[ 10] =        -0.081735664818;
  BAS[ATNO][  8].a[ 11] =         0.571535085400;     BAS[ATNO][  8].d[ 11] =        -0.141271587793;
  BAS[ATNO][  8].a[ 12] =         7.406473731500;     BAS[ATNO][  8].d[ 12] =         0.000558702825;
  BAS[ATNO][  8].a[ 13] =         5.902626860300;     BAS[ATNO][  8].d[ 13] =        -0.001134665461;
  BAS[ATNO][  8].a[ 14] =         1.298475675000;     BAS[ATNO][  8].d[ 14] =         0.003541631586;
  BAS[ATNO][  8].a[ 15] =         0.571535085400;     BAS[ATNO][  8].d[ 15] =         0.006121341505;
  BAS[ATNO][  8].a[ 16] =         7.406473731500;     BAS[ATNO][  8].d[ 16] =        -0.008433336613;
  BAS[ATNO][  8].a[ 17] =         5.902626860300;     BAS[ATNO][  8].d[ 17] =         0.017127201355;
  BAS[ATNO][  8].a[ 18] =         1.298475675000;     BAS[ATNO][  8].d[ 18] =        -0.053459137856;
  BAS[ATNO][  8].a[ 19] =         0.571535085400;     BAS[ATNO][  8].d[ 19] =        -0.092398554582;
  BAS[ATNO][  8].a[ 20] =         7.406473731500;     BAS[ATNO][  8].d[ 20] =         0.001436902257;
  BAS[ATNO][  8].a[ 21] =         5.902626860300;     BAS[ATNO][  8].d[ 21] =        -0.002918194236;

  // Basis function  10 L = d
  InitBFNGauss(BAS[ATNO][  9]);
  BAS[ATNO][  9].l  = 2;
  BAS[ATNO][  9].ng = 22;
  BAS[ATNO][  9].a[  0] =        30.000000000000;     BAS[ATNO][  9].d[  0] =        -0.000001276814;
  BAS[ATNO][  9].a[  1] =        27.000000000000;     BAS[ATNO][  9].d[  1] =         0.000002054224;
  BAS[ATNO][  9].a[  2] =        13.078045684000;     BAS[ATNO][  9].d[  2] =        -0.000003878352;
  BAS[ATNO][  9].a[  3] =         4.810044971700;     BAS[ATNO][  9].d[  3] =         0.000021774602;
  BAS[ATNO][  9].a[  4] =         0.984978042600;     BAS[ATNO][  9].d[  4] =        -0.000283271596;
  BAS[ATNO][  9].a[  5] =         0.449104853400;     BAS[ATNO][  9].d[  5] =         0.000474513784;
  BAS[ATNO][  9].a[  6] =         0.114483529200;     BAS[ATNO][  9].d[  6] =         0.000245597730;
  BAS[ATNO][  9].a[  7] =         0.041720422000;     BAS[ATNO][  9].d[  7] =        -0.001147854843;
  BAS[ATNO][  9].a[  8] =         7.406473731500;     BAS[ATNO][  9].d[  8] =        -0.007714173278;
  BAS[ATNO][  9].a[  9] =         5.902626860300;     BAS[ATNO][  9].d[  9] =         0.015666657822;
  BAS[ATNO][  9].a[ 10] =         1.298475675000;     BAS[ATNO][  9].d[ 10] =        -0.048900342964;
  BAS[ATNO][  9].a[ 11] =         0.571535085400;     BAS[ATNO][  9].d[ 11] =        -0.084519152191;
  BAS[ATNO][  9].a[ 12] =         7.406473731500;     BAS[ATNO][  9].d[ 12] =         0.002913013408;
  BAS[ATNO][  9].a[ 13] =         5.902626860300;     BAS[ATNO][  9].d[ 13] =        -0.005916017525;
  BAS[ATNO][  9].a[ 14] =         1.298475675000;     BAS[ATNO][  9].d[ 14] =         0.018465666975;
  BAS[ATNO][  9].a[ 15] =         0.571535085400;     BAS[ATNO][  9].d[ 15] =         0.031915983053;
  BAS[ATNO][  9].a[ 16] =         7.406473731500;     BAS[ATNO][  9].d[ 16] =         0.022764125375;
  BAS[ATNO][  9].a[ 17] =         5.902626860300;     BAS[ATNO][  9].d[ 17] =        -0.046231494942;
  BAS[ATNO][  9].a[ 18] =         1.298475675000;     BAS[ATNO][  9].d[ 18] =         0.144302376680;
  BAS[ATNO][  9].a[ 19] =         0.571535085400;     BAS[ATNO][  9].d[ 19] =         0.249411635927;
  BAS[ATNO][  9].a[ 20] =         7.406473731500;     BAS[ATNO][  9].d[ 20] =         0.070049293492;
  BAS[ATNO][  9].a[ 21] =         5.902626860300;     BAS[ATNO][  9].d[ 21] =        -0.142262595398;

  // Basis function  11 L = p
  InitBFNGauss(BAS[ATNO][ 10]);
  BAS[ATNO][ 10].l  = 1;
  BAS[ATNO][ 10].ng = 22;
  BAS[ATNO][ 10].a[  0] =        17.000000000000;     BAS[ATNO][ 10].d[  0] =         0.221247676408;
  BAS[ATNO][ 10].a[  1] =        12.431973432000;     BAS[ATNO][ 10].d[  1] =        -0.638021517030;
  BAS[ATNO][ 10].a[  2] =         5.158621765800;     BAS[ATNO][ 10].d[  2] =         1.720004116535;
  BAS[ATNO][ 10].a[  3] =         1.280145481200;     BAS[ATNO][ 10].d[  3] =        -3.016489723152;
  BAS[ATNO][ 10].a[  4] =        17.000000000000;     BAS[ATNO][ 10].d[  4] =        -0.005202925291;
  BAS[ATNO][ 10].a[  5] =        12.431973432000;     BAS[ATNO][ 10].d[  5] =         0.015003901245;
  BAS[ATNO][ 10].a[  6] =         5.158621765800;     BAS[ATNO][ 10].d[  6] =        -0.040448121601;
  BAS[ATNO][ 10].a[  7] =         1.280145481200;     BAS[ATNO][ 10].d[  7] =         0.070936657626;
  BAS[ATNO][ 10].a[  8] =        17.000000000000;     BAS[ATNO][ 10].d[  8] =         0.078151172808;
  BAS[ATNO][ 10].a[  9] =        12.431973432000;     BAS[ATNO][ 10].d[  9] =        -0.225367925404;
  BAS[ATNO][ 10].a[ 10] =         5.158621765800;     BAS[ATNO][ 10].d[ 10] =         0.607555935157;
  BAS[ATNO][ 10].a[ 11] =         1.280145481200;     BAS[ATNO][ 10].d[ 11] =        -1.065512702571;
  BAS[ATNO][ 10].a[ 12] =         0.628567909000;     BAS[ATNO][ 10].d[ 12] =         3.704291472902;
  BAS[ATNO][ 10].a[ 13] =         0.628567909000;     BAS[ATNO][ 10].d[ 13] =        -0.087111205433;
  BAS[ATNO][ 10].a[ 14] =         0.628567909000;     BAS[ATNO][ 10].d[ 14] =         1.308464467194;
  BAS[ATNO][ 10].a[ 15] =         0.293804235500;     BAS[ATNO][ 10].d[ 15] =        -1.871273488007;
  BAS[ATNO][ 10].a[ 16] =         0.293804235500;     BAS[ATNO][ 10].d[ 16] =         0.044005416536;
  BAS[ATNO][ 10].a[ 17] =         0.293804235500;     BAS[ATNO][ 10].d[ 17] =        -0.660988716836;
  BAS[ATNO][ 10].a[ 18] =         0.065000000000;     BAS[ATNO][ 10].d[ 18] =         0.563903373764;
  BAS[ATNO][ 10].a[ 19] =         0.065000000000;     BAS[ATNO][ 10].d[ 19] =        -0.013260917235;
  BAS[ATNO][ 10].a[ 20] =         0.065000000000;     BAS[ATNO][ 10].d[ 20] =         0.199187221875;
  BAS[ATNO][ 10].a[ 21] =         0.027938779000;     BAS[ATNO][ 10].d[ 21] =        -0.266351795720;

-------------------------------------------
RADIAL EXPECTATION VALUES <R**-3> TO <R**3>
-------------------------------------------
   0 :     0.000000     1.041717     0.979193     1.113151     1.354204     1.803504
   1 :     0.833703     0.804547     0.853943     1.295979     1.863559     2.978866
   2 :     0.833606     0.804473     0.853896     1.296082     1.863920     2.979928
   3 :     0.838654     0.808317     0.856335     1.290654     1.844844     2.924031
   4 :     0.321057     0.399600     0.581720     2.047429     5.011032    72.996916
   5 :     0.000000     0.173304     0.361818     3.274934    12.255855    51.634613
   6 :     0.000000     0.094857     0.247300     5.176008    30.642745   196.126915
   7 :     0.000000     0.588668     0.654672     2.222768     7.274157    33.307098
   8 :     0.000000     5.225533     2.030919     0.598708     0.583332     1.441402
   9 :     0.000000    47.186738     5.524993     0.241589     0.098502     0.153556
  10 :     0.316896     0.395611     0.578323     2.063032     5.094872    74.766944
  11 :     0.317610     0.396326     0.579032     2.058530     5.066653    74.191827
  12 :     0.317426     0.396141     0.578867     2.059377     5.071479    74.309838
  13 :     0.055794     0.096054     0.266809     4.450419    22.401672   125.267967
  14 :     0.018576     0.044743     0.184774     6.277358    43.810835   333.166863
  15 :     0.018537     0.044676     0.184646     6.280831    43.854192   333.610029
  16 :     0.219963     0.293688     0.482475     2.629252     8.561619   165.546007
  17 :     0.019378     0.040676     0.163835     7.515952    62.839700   559.476192
  18 :     0.045970     0.080999     0.234324     5.785079    42.083514   355.060662
  19 :     0.046004     0.081053     0.234426     5.782068    42.044905   354.660443
  20 :     0.066673     0.107676     0.273018     4.450370    21.750874   561.837863
  21 :    10.412455     3.370389     1.472965     1.332929     3.618408    17.428821
  22 :     0.065712     0.106818     0.272244     4.458105    21.818822   564.261029
  23 :     0.065793     0.106908     0.272332     4.457629    21.816266   564.206281
  24 :     0.066621     0.108326     0.273760     4.446805    21.742243   561.421789
  25 :     0.135401     0.184213     0.349427     3.955694    18.649149   479.925230
  26 :     0.289647     0.312485     0.465208     3.092459    13.602976    82.070741
  27 :     0.305300     0.327245     0.479127     2.991209    12.932183    78.537889
  28 :     0.305405     0.327333     0.479199     2.990650    12.927122    78.494257
  29 :     0.358251     0.392194     0.536528     2.599450     8.933979   189.049074
  30 :     0.362662     0.396328     0.539993     2.580605     8.810355   185.430252
  31 :     0.362764     0.396423     0.540070     2.580235     8.808085   185.366989
  32 :     0.362265     0.395933     0.539607     2.583766     8.834448   186.153108
  33 :     0.390619     0.421572     0.559366     2.512295     8.485062   178.411872
  34 :    10.412532     3.370392     1.472946     1.333076     3.619355    17.434546
  35 :    10.412457     3.370389     1.472965     1.332935     3.618456    17.429197
Making the total density                ... o.k.
o.k.
Initializing the integrals              ... done
Making exponents                        ... done
Making rho(0)                           ... done (         0.000072778)
Integral calculation                    ... Two index integrals                     ... done
Solving the equation system             ... done
atomic density will be written to file TMB06_C1_atom74.adf

-------
TIMINGS
-------

Total SCF time: 0 days 0 hours 0 min 0 sec 

Total time                  ....       0.918 sec
Sum of individual times     ....       0.607 sec  ( 66.1%)

Fock matrix formation       ....       0.547 sec  ( 59.6%)
Diagonalization             ....       0.051 sec  (  5.6%)
Density matrix formation    ....       0.001 sec  (  0.1%)
Population analysis         ....       0.000 sec  (  0.0%)
Initial guess               ....       0.000 sec  (  0.0%)
Orbital Transformation      ....       0.000 sec  (  0.0%)
Orbital Orthonormalization  ....       0.000 sec  (  0.0%)
DIIS solution               ....       0.007 sec  (  0.7%)

-------------------------   --------------------
FINAL SINGLE POINT ENERGY       -66.163208309470
-------------------------   --------------------


                            ***************************************
                            *     ORCA property calculations      *
                            ***************************************

                                    ---------------------
                                    Active property flags
                                    ---------------------
   (+) Dipole Moment


------------------------------------------------------------------------------
                       ORCA ELECTRIC PROPERTIES CALCULATION
------------------------------------------------------------------------------

Dipole Moment Calculation                       ... on
Quadrupole Moment Calculation                   ... off
Polarizability Calculation                      ... off
GBWName                                         ... TMB06_C1_atom74.gbw
Electron density file                           ... TMB06_C1_atom74.scfp
The origin for moment calculation is the CENTER OF MASS  = ( 0.000000,  0.000000  0.000000)

-------------
DIPOLE MOMENT
-------------
                                X             Y             Z
Electronic contribution:      0.00000      -0.00000       0.00000
Nuclear contribution   :      0.00000       0.00000       0.00000
                        -----------------------------------------
Total Dipole Moment    :      0.00000      -0.00000       0.00000
                        -----------------------------------------
Magnitude (a.u.)       :      0.00000
Magnitude (Debye)      :      0.00000



--------------------
Rotational spectrum 
--------------------
 
Rotational constants in cm-1:     0.000000     0.000000     0.000000 
Rotational constants in MHz :     0.000000     0.000000     0.000000 

 Dipole components along the rotational axes: 
x,y,z [a.u.] :     0.000000    -0.000000     0.000000 
x,y,z [Debye]:     0.000000    -0.000000     0.000000 

 

Timings for individual modules:

Sum of individual times         ...        1.165 sec (=   0.019 min)
GTO integral calculation        ...        0.228 sec (=   0.004 min)  19.6 %
SCF iterations                  ...        0.937 sec (=   0.016 min)  80.4 %
                             ****ORCA TERMINATED NORMALLY****
TOTAL RUN TIME: 0 days 0 hours 0 minutes 1 seconds 281 msec
