
                                 *****************
                                 * O   R   C   A *
                                 *****************

           --- An Ab Initio, DFT and Semiempirical electronic structure package ---

                  #######################################################
                  #                        -***-                        #
                  #          Department of theory and spectroscopy      #
                  #               Directorship: Frank Neese             #
                  #        Max Planck Institute fuer Kohlenforschung    #
                  #                Kaiser Wilhelm Platz 1               #
                  #                 D-45470 Muelheim/Ruhr               #
                  #                      Germany                        #
                  #                                                     #
                  #                  All rights reserved                #
                  #                        -***-                        #
                  #######################################################


                         Program Version 4.2.0 -  RELEASE  -


 With contributions from (in alphabetic order):
   Daniel Aravena         : Magnetic Suceptibility
   Michael Atanasov       : Ab Initio Ligand Field Theory (pilot matlab implementation)
   Alexander A. Auer      : GIAO ZORA, VPT2
   Ute Becker             : Parallelization
   Giovanni Bistoni       : ED, misc. LED, open-shell LED, HFLED
   Martin Brehm           : Molecular dynamics
   Dmytro Bykov           : SCF Hessian
   Vijay G. Chilkuri      : MRCI spin determinant printing, contributions to CSF-ICE
   Dipayan Datta          : RHF DLPNO-CCSD density
   Achintya Kumar Dutta   : EOM-CC, STEOM-CC
   Dmitry Ganyushin       : Spin-Orbit,Spin-Spin,Magnetic field MRCI
   Miquel Garcia          : C-PCM Hessian, Gaussian charge scheme
   Yang Guo               : DLPNO-NEVPT2, CIM, IAO-localization
   Andreas Hansen         : Spin unrestricted coupled pair/coupled cluster methods
   Benjamin Helmich-Paris : CASSCF linear response (MC-RPA)
   Lee Huntington         : MR-EOM, pCC
   Robert Izsak           : Overlap fitted RIJCOSX, COSX-SCS-MP3, EOM
   Christian Kollmar      : KDIIS, OOCD, Brueckner-CCSD(T), CCSD density
   Simone Kossmann        : Meta GGA functionals, TD-DFT gradient, OOMP2, MP2 Hessian
   Martin Krupicka        : AUTO-CI
   Lucas Lang             : DCDCAS
   Dagmar Lenk            : GEPOL surface, SMD
   Dimitrios Liakos       : Extrapolation schemes; Compound Job, initial MDCI parallelization
   Dimitrios Manganas     : Further ROCIS development; embedding schemes
   Dimitrios Pantazis     : SARC Basis sets
   Taras Petrenko         : DFT Hessian,TD-DFT gradient, ASA, ECA, R-Raman, ABS, FL, XAS/XES, NRVS
   Peter Pinski           : DLPNO-MP2, DLPNO-MP2 Gradient
   Christoph Reimann      : Effective Core Potentials
   Marius Retegan         : Local ZFS, SOC
   Christoph Riplinger    : Optimizer, TS searches, QM/MM, DLPNO-CCSD(T), (RO)-DLPNO pert. Triples
   Tobias Risthaus        : Range-separated hybrids, TD-DFT gradient, RPA, STAB
   Michael Roemelt        : Original ROCIS implementation
   Masaaki Saitow         : Open-shell DLPNO-CCSD energy and density
   Barbara Sandhoefer     : DKH picture change effects
   Avijit Sen             : IP-ROCIS
   Kantharuban Sivalingam : CASSCF convergence, NEVPT2, FIC-MRCI
   Bernardo de Souza      : ESD, SOC TD-DFT
   Georgi Stoychev        : AutoAux, RI-MP2 NMR
   Willem Van den Heuvel  : Paramagnetic NMR
   Boris Wezisla          : Elementary symmetry handling
   Frank Wennmohs         : Technical directorship


 We gratefully acknowledge several colleagues who have allowed us to
 interface, adapt or use parts of their codes:
   Stefan Grimme, W. Hujo, H. Kruse,             : VdW corrections, initial TS optimization,
                  C. Bannwarth                     DFT functionals, gCP, sTDA/sTD-DF
   Ed Valeev, F. Pavosevic, A. Kumar             : LibInt (2-el integral package), F12 methods
   Garnet Chan, S. Sharma, J. Yang, R. Olivares  : DMRG
   Ulf Ekstrom                                   : XCFun DFT Library
   Mihaly Kallay                                 : mrcc  (arbitrary order and MRCC methods)
   Andreas Klamt, Michael Diedenhofen            : otool_cosmo (COSMO solvation model)
   Jiri Pittner, Ondrej Demel                    : Mk-CCSD
   Frank Weinhold                                : gennbo (NPA and NBO analysis)
   Christopher J. Cramer and Donald G. Truhlar   : smd solvation model
   Lars Goerigk                                  : TD-DFT with DH, B97 family of functionals
   V. Asgeirsson, H. Jonsson                     : NEB implementation
   FAccTs GmbH                                   : IRC, NEB, NEB-TS, Multilevel, MM, QM/MM, CI optimization
   S Lehtola, MJT Oliveira, MAL Marques          : LibXC Library


 Your calculation uses the libint2 library for the computation of 2-el integrals
 For citations please refer to: http://libint.valeyev.net

 Your ORCA version has been built with support for libXC version: 4.2.3
 For citations please refer to: https://tddft.org/programs/libxc/

 This ORCA versions uses:
   CBLAS   interface :  Fast vector & matrix operations
   LAPACKE interface :  Fast linear algebra routines
   SCALAPACK package :  Parallel linear algebra routines


Your calculation utilizes the atom-pairwise dispersion correction
with the Becke-Johnson damping scheme (D3BJ)
Cite in your paper:
S.Grimme, S.Ehrlich, L.Goerigk, J Comput Chem, (2011), 32, 1456–1465 
S.Grimme, J.Antony, S.Ehrlich and H.Krieg, J.Chem.Phys., 132, (2010), 154104 
   

----- Orbital basis set information -----
Your calculation utilizes the basis: def2-TZVPPD
   F. Weigend and R. Ahlrichs, Phys. Chem. Chem. Phys. 7, 3297 (2005).
   D. Rappoport and F. Furche, J. Chem. Phys. 133 134105 (2010).

----- AuxC basis set information -----
Your calculation utilizes the auxiliary basis: def2-TZVPPD/C
   A. Hellweg, C. Hattig, S. Hofener and W. Klopper, Theor. Chem. Acc. 117, 587 (2007).

----- AuxJK basis set information -----
Your calculation utilizes the auxiliary basis: def2/JK
   H-Ba, Hf-Rn: F. Weigend, J. Comput. Chem. 29, 167 (2008).

cite the ECPs for Mo [Def2-ECP] as follows:
Ce-Yb(ecp-28): M. Dolg, H. Stoll, H.Preuss, J. Chem. Phys., 1989, 90, 1730-1734.
Y-Cd(ecp-28), Hf-Hg(ecp-46): D. Andrae,U. Haeussermann, M. Dolg, H. Stoll, H. Preuss, Theor. Chim. Acta, 1990, 77, 123-141.
In-Sb(ecp-28), Tl-Bi(ecp-46): B. Metz, H. Stoll, M. Dolg, J. Chem. Phys., 2000, 113, 2563-2569.
Te-Xe(ecp-28), Po-Rn(ecp-46): K. A. Peterson, D. Figgen, E. Goll, H. Stoll, M. Dolg, J. Chem. Phys., 2003, 119, 11113-11123.
Rb(ecp-28), Cs(ecp-46): T. Leininger, A. Nicklass, W. Kuechle, H. Stoll, M. Dolg, A. Bergner, Chem. Phys. Lett., 1996, 255, 274-280.
Sr(ecp-28), Ba(ecp-46): M. Kaupp, P. V. Schleyer, H. Stoll and H. Preuss, J. Chem. Phys., 1991, 94, 1360-1366.
La(ecp-46): M. Dolg, H. Stoll, A. Savin, H. Preuss, Theor. Chim. Acta, 1989, 75, 173-194.
Lu(ecp-28): X. Cao, M. Dolg, J. Chem. Phys., 2001, 115, 7348-7355.

ECP parameters for Mo [Def2-ECP] have been obtained from:
TURBOMOLE (7.0.2)

================================================================================
                                        WARNINGS
                       Please study these warnings very carefully!
================================================================================


WARNING: No MP2 level density has been requested!
         To caclulate MP2 level properties use
         %mp2 Density relaxed end
         or
         %mp2 Density unrelaxed end
         Otherwise for double-hybrid DFT only the energy is correct!

WARNING: There are different parametrizations of Gershom Martin's DSD-DFs
         for use with and without D3(BJ)!
         You are using the D3(BJ) parametrized version,
         consistent with the 2013 article (S. Kozuch and J. M. L. Martin, JCC 2013, 34, 2327)

WARNING: The frozen-core approximation is turned on by default for 
         the MP2 part of double-hybrid DFT.

INFO   : the flag for use of LIBINT has been found!

================================================================================
                                       INPUT FILE
================================================================================
NAME = TMB09_T1.in
|  1> #
|  2> # TMB09_T1 ri-DSD-BLYP/2013-D3BJ/Def2-TZVPPD
|  3> #
|  4> ! rijk ri-dsd-blyp/2013 d3bj def2-tzvppd def2/jk def2-tzvppd/c grid4 nofinalgrid
|  5> 
|  6> *xyz 0 1
|  7> Mo       0.144293   -0.018278    0.187956 
|  8> C       -1.882744   -1.070987   -0.485243 
|  9> C       -1.076439    2.809087   -0.488683 
| 10> H       -1.056313    3.572787    0.310053 
| 11> H       -2.117393    2.730299   -0.852689 
| 12> H       -0.453643    3.172151   -1.326804 
| 13> C        1.996084   -2.290843   -0.946924 
| 14> C        2.556730    1.794509   -0.039409 
| 15> N       -0.610025    1.553803    0.004719 
| 16> O        1.936938    0.565567   -0.322724 
| 17> O        0.833025   -1.766355   -0.360705 
| 18> H        1.780871   -2.689531   -1.957376 
| 19> H        2.380311   -3.126092   -0.331250 
| 20> H        2.779790   -1.516765   -1.025980 
| 21> H        3.470410    1.892833   -0.654307 
| 22> H        2.854397    1.863620    1.026056 
| 23> H        1.897937    2.657406   -0.259961 
| 24> C       -0.134457   -0.284271    2.087106 
| 25> C       -1.864166   -1.358035    0.884748 
| 26> H        0.299474   -1.167843    2.578202 
| 27> H       -0.661177    0.399181    2.762773 
| 28> H       -1.449974   -2.303708    1.234049 
| 29> H       -2.567349   -0.858578    1.555883 
| 30> C       -2.930318   -0.174171   -1.105185 
| 31> H       -2.557155    0.344677   -2.001613 
| 32> H       -3.799822   -0.779414   -1.421129 
| 33> H       -3.293476    0.582538   -0.393193 
| 34> H       -1.444854   -1.827941   -1.140932 
| 35> *
| 36> 
| 37> %maxcore 5000
| 38> 
| 39> %pal
| 40> nprocs = 24
| 41> end
| 42> 
| 43> 
| 44>                          ****END OF INPUT****
================================================================================

                       ****************************
                       * Single Point Calculation *
                       ****************************

---------------------------------
CARTESIAN COORDINATES (ANGSTROEM)
---------------------------------
  Mo     0.144293   -0.018278    0.187956
  C     -1.882744   -1.070987   -0.485243
  C     -1.076439    2.809087   -0.488683
  H     -1.056313    3.572787    0.310053
  H     -2.117393    2.730299   -0.852689
  H     -0.453643    3.172151   -1.326804
  C      1.996084   -2.290843   -0.946924
  C      2.556730    1.794509   -0.039409
  N     -0.610025    1.553803    0.004719
  O      1.936938    0.565567   -0.322724
  O      0.833025   -1.766355   -0.360705
  H      1.780871   -2.689531   -1.957376
  H      2.380311   -3.126092   -0.331250
  H      2.779790   -1.516765   -1.025980
  H      3.470410    1.892833   -0.654307
  H      2.854397    1.863620    1.026056
  H      1.897937    2.657406   -0.259961
  C     -0.134457   -0.284271    2.087106
  C     -1.864166   -1.358035    0.884748
  H      0.299474   -1.167843    2.578202
  H     -0.661177    0.399181    2.762773
  H     -1.449974   -2.303708    1.234049
  H     -2.567349   -0.858578    1.555883
  C     -2.930318   -0.174171   -1.105185
  H     -2.557155    0.344677   -2.001613
  H     -3.799822   -0.779414   -1.421129
  H     -3.293476    0.582538   -0.393193
  H     -1.444854   -1.827941   -1.140932

----------------------------
CARTESIAN COORDINATES (A.U.)
----------------------------
  NO LB      ZA    FRAG     MASS         X           Y           Z
   0 Mo   14.0000*   0    95.940    0.272674   -0.034540    0.355185
   1 C     6.0000    0    12.011   -3.557871   -2.023872   -0.916976
   2 C     6.0000    0    12.011   -2.034175    5.308405   -0.923477
   3 H     1.0000    0     1.008   -1.996142    6.751589    0.585915
   4 H     1.0000    0     1.008   -4.001293    5.159517   -1.611349
   5 H     1.0000    0     1.008   -0.857261    5.994497   -2.507296
   6 C     6.0000    0    12.011    3.772052   -4.329066   -1.789427
   7 C     6.0000    0    12.011    4.831519    3.391131   -0.074472
   8 N     7.0000    0    14.007   -1.152780    2.936262    0.008918
   9 O     8.0000    0    15.999    3.660282    1.068767   -0.609860
  10 O     8.0000    0    15.999    1.574189   -3.337927   -0.681634
  11 H     1.0000    0     1.008    3.365358   -5.082477   -3.698905
  12 H     1.0000    0     1.008    4.498136   -5.907458   -0.625972
  13 H     1.0000    0     1.008    5.253042   -2.866270   -1.938821
  14 H     1.0000    0     1.008    6.558124    3.576936   -1.236461
  15 H     1.0000    0     1.008    5.394029    3.521731    1.938965
  16 H     1.0000    0     1.008    3.586581    5.021770   -0.491255
  17 C     6.0000    0    12.011   -0.254087   -0.537194    3.944059
  18 C     6.0000    0    12.011   -3.522763   -2.566314    1.671931
  19 H     1.0000    0     1.008    0.565924   -2.206903    4.872096
  20 H     1.0000    0     1.008   -1.249443    0.754343    5.220884
  21 H     1.0000    0     1.008   -2.740054   -4.353377    2.332015
  22 H     1.0000    0     1.008   -4.851587   -1.622477    2.940193
  23 C     6.0000    0    12.011   -5.537499   -0.329135   -2.088497
  24 H     1.0000    0     1.008   -4.832323    0.651345   -3.782500
  25 H     1.0000    0     1.008   -7.180623   -1.472879   -2.685545
  26 H     1.0000    0     1.008   -6.223768    1.100837   -0.743027
  27 H     1.0000    0     1.008   -2.730378   -3.454308   -2.156049
* core charge reduced due to ECP

--------------------------------
INTERNAL COORDINATES (ANGSTROEM)
--------------------------------
 Mo     0   0   0     0.000000000000     0.00000000     0.00000000
 C      1   0   0     2.381233321548     0.00000000     0.00000000
 C      1   2   0     3.153096857911    90.35416580     0.00000000
 H      3   1   2     1.105270077208   117.22287164   125.98189637
 H      3   1   2     1.105573673301   111.79438695     0.93323316
 H      3   1   2     1.105503114583   103.83186971   245.09209323
 C      1   2   3     3.143506672699    94.57678127   216.68676685
 C      1   2   3     3.026176437282   157.24926990   308.16077783
 N      3   1   2     1.427138911829     8.33579235    87.31623396
 O      8   1   2     1.405243022346    30.64532601   277.48267478
 O      7   1   2     1.404082125656    24.66757243   327.13618320
 H      7   1   2     1.107376178639   118.37357679    44.97133975
 H      7   1   2     1.106492545753   123.32566127   264.80956309
 H      7   1   2     1.104373893053    86.39702684   154.60695032
 H      8   1   2     1.105702628097   138.92033387   295.55831576
 H      8   1   2     1.108421237362   100.32403884   162.39971618
 H      8   1   2     1.107809836643    90.42894388    54.40925173
 C      1   2   3     1.937840179439    95.38999786   106.23184163
 C      2   1   3     1.399863220629    78.61953806   245.90319180
 H     18   1   2     1.100077666877   119.40723354    94.01901505
 H     18   1   2     1.095931790575   125.99730880   271.02019269
 H     19   2   1     1.089891565429   119.77641259   265.45198793
 H     19   2   1     1.092861297038   119.91738675   108.56187226
 C      2   1   3     1.511958434183   116.32713961     6.30003436
 H     24   2   1     1.100925533747   112.24433834    58.40885355
 H     24   2   1     1.105521101653   109.71783228   177.19901419
 H     24   2   1     1.100647469315   111.78755294   296.43929625
 H      2   1   3     1.093002779016    97.74258943   130.73038408

---------------------------
INTERNAL COORDINATES (A.U.)
---------------------------
 Mo     0   0   0     0.000000000000     0.00000000     0.00000000
 C      1   0   0     4.499878838694     0.00000000     0.00000000
 C      1   2   0     5.958489535180    90.35416580     0.00000000
 H      3   1   2     2.088657749942   117.22287164   125.98189637
 H      3   1   2     2.089231463412   111.79438695     0.93323316
 H      3   1   2     2.089098126759   103.83186971   245.09209323
 C      1   2   3     5.940366711556    94.57678127   216.68676685
 C      1   2   3     5.718644699389   157.24926990   308.16077783
 N      3   1   2     2.696901698419     8.33579235    87.31623396
 O      8   1   2     2.655524463838    30.64532601   277.48267478
 O      7   1   2     2.653330687023    24.66757243   327.13618320
 H      7   1   2     2.092637704856   118.37357679    44.97133975
 H      7   1   2     2.090967880698   123.32566127   264.80956309
 H      7   1   2     2.086964207322    86.39702684   154.60695032
 H      8   1   2     2.089475152660   138.92033387   295.55831576
 H      8   1   2     2.094612579636   100.32403884   162.39971618
 H      8   1   2     2.093457199718    90.42894388    54.40925173
 C      1   2   3     3.661987230449    95.38999786   106.23184163
 C      2   1   3     2.645358111937    78.61953806   245.90319180
 H     18   1   2     2.078845516440   119.40723354    94.01901505
 H     18   1   2     2.071010945645   125.99730880   271.02019269
 H     19   2   1     2.059596574332   119.77641259   265.45198793
 H     19   2   1     2.065208553763   119.91738675   108.56187226
 C      2   1   3     2.857187366478   116.32713961     6.30003436
 H     24   2   1     2.080447752624   112.24433834    58.40885355
 H     24   2   1     2.089132117396   109.71783228   177.19901419
 H     24   2   1     2.079922286998   111.78755294   296.43929625
 H      2   1   3     2.065475915955    97.74258943   130.73038408

---------------------
BASIS SET INFORMATION
---------------------
There are 5 groups of distinct atoms

 Group   1 Type Mo  : 7s7p5d2f1g contracted to 6s4p3d2f1g pattern {211111/4111/311/11/1}
 Group   2 Type C   : 12s6p3d1f contracted to 6s3p3d1f pattern {621111/411/111/1}
 Group   3 Type H   : 5s3p1d contracted to 3s3p1d pattern {311/111/1}
 Group   4 Type N   : 12s6p3d1f contracted to 6s3p3d1f pattern {621111/411/111/1}
 Group   5 Type O   : 12s7p3d1f contracted to 6s4p3d1f pattern {621111/4111/111/1}

Atom   0Mo   basis set group =>   1
Atom   1C    basis set group =>   2
Atom   2C    basis set group =>   2
Atom   3H    basis set group =>   3
Atom   4H    basis set group =>   3
Atom   5H    basis set group =>   3
Atom   6C    basis set group =>   2
Atom   7C    basis set group =>   2
Atom   8N    basis set group =>   4
Atom   9O    basis set group =>   5
Atom  10O    basis set group =>   5
Atom  11H    basis set group =>   3
Atom  12H    basis set group =>   3
Atom  13H    basis set group =>   3
Atom  14H    basis set group =>   3
Atom  15H    basis set group =>   3
Atom  16H    basis set group =>   3
Atom  17C    basis set group =>   2
Atom  18C    basis set group =>   2
Atom  19H    basis set group =>   3
Atom  20H    basis set group =>   3
Atom  21H    basis set group =>   3
Atom  22H    basis set group =>   3
Atom  23C    basis set group =>   2
Atom  24H    basis set group =>   3
Atom  25H    basis set group =>   3
Atom  26H    basis set group =>   3
Atom  27H    basis set group =>   3
---------------------------------
AUXILIARY/C BASIS SET INFORMATION
---------------------------------
There are 5 groups of distinct atoms

 Group   1 Type Mo  : 8s7p6d5f4g3h1i contracted to 8s7p6d5f4g3h1i pattern {11111111/1111111/111111/11111/1111/111/1}
 Group   2 Type C   : 9s7p6d4f1g contracted to 9s7p5d4f1g pattern {111111111/1111111/21111/1111/1}
 Group   3 Type H   : 5s4p3d1f contracted to 5s4p3d1f pattern {11111/1111/111/1}
 Group   4 Type N   : 9s7p6d4f1g contracted to 9s7p5d4f1g pattern {111111111/1111111/21111/1111/1}
 Group   5 Type O   : 9s7p6d4f1g contracted to 9s7p5d4f1g pattern {111111111/1111111/21111/1111/1}

Atom   0Mo   basis set group =>   1
Atom   1C    basis set group =>   2
Atom   2C    basis set group =>   2
Atom   3H    basis set group =>   3
Atom   4H    basis set group =>   3
Atom   5H    basis set group =>   3
Atom   6C    basis set group =>   2
Atom   7C    basis set group =>   2
Atom   8N    basis set group =>   4
Atom   9O    basis set group =>   5
Atom  10O    basis set group =>   5
Atom  11H    basis set group =>   3
Atom  12H    basis set group =>   3
Atom  13H    basis set group =>   3
Atom  14H    basis set group =>   3
Atom  15H    basis set group =>   3
Atom  16H    basis set group =>   3
Atom  17C    basis set group =>   2
Atom  18C    basis set group =>   2
Atom  19H    basis set group =>   3
Atom  20H    basis set group =>   3
Atom  21H    basis set group =>   3
Atom  22H    basis set group =>   3
Atom  23C    basis set group =>   2
Atom  24H    basis set group =>   3
Atom  25H    basis set group =>   3
Atom  26H    basis set group =>   3
Atom  27H    basis set group =>   3
----------------------------------
AUXILIARY/JK BASIS SET INFORMATION
----------------------------------
There are 5 groups of distinct atoms

 Group   1 Type Mo  : 13s12p10d9f6g3h2i contracted to 11s10p9d8f6g3h2i pattern {31111111111/3111111111/211111111/21111111/111111/111/11}
 Group   2 Type C   : 14s10p6d2f1g contracted to 10s8p5d1f1g pattern {5111111111/31111111/21111/2/1}
 Group   3 Type H   : 4s2p2d contracted to 2s2p2d pattern {31/11/11}
 Group   4 Type N   : 14s10p6d2f1g contracted to 10s8p4d2f1g pattern {5111111111/31111111/3111/11/1}
 Group   5 Type O   : 14s10p6d2f1g contracted to 10s8p4d2f1g pattern {5111111111/31111111/3111/11/1}

Atom   0Mo   basis set group =>   1
Atom   1C    basis set group =>   2
Atom   2C    basis set group =>   2
Atom   3H    basis set group =>   3
Atom   4H    basis set group =>   3
Atom   5H    basis set group =>   3
Atom   6C    basis set group =>   2
Atom   7C    basis set group =>   2
Atom   8N    basis set group =>   4
Atom   9O    basis set group =>   5
Atom  10O    basis set group =>   5
Atom  11H    basis set group =>   3
Atom  12H    basis set group =>   3
Atom  13H    basis set group =>   3
Atom  14H    basis set group =>   3
Atom  15H    basis set group =>   3
Atom  16H    basis set group =>   3
Atom  17C    basis set group =>   2
Atom  18C    basis set group =>   2
Atom  19H    basis set group =>   3
Atom  20H    basis set group =>   3
Atom  21H    basis set group =>   3
Atom  22H    basis set group =>   3
Atom  23C    basis set group =>   2
Atom  24H    basis set group =>   3
Atom  25H    basis set group =>   3
Atom  26H    basis set group =>   3
Atom  27H    basis set group =>   3
-------------------------
ECP PARAMETER INFORMATION
-------------------------

 Group 1, Type Mo ECP Def2-ECP (replacing 28 core electrons, lmax=3)

Atom   0Mo   ECP group =>   1



           ************************************************************
           *        Program running with 24 parallel MPI-processes    *
           *              working on a common directory               *
           ************************************************************
------------------------------------------------------------------------------
                           ORCA GTO INTEGRAL CALCULATION
                           -- RI-GTO INTEGRALS CHOSEN --
------------------------------------------------------------------------------

                         BASIS SET STATISTICS AND STARTUP INFO

Gaussian basis set:
 # of primitive gaussian shells          ...  397
 # of primitive gaussian functions       ...  925
 # of contracted shells                  ...  267
 # of contracted basis functions         ...  721
 Highest angular momentum                ...    4
 Maximum contraction depth               ...    6
Auxiliary gaussian basis set:
 # of primitive gaussian shells          ...  521
 # of primitive gaussian functions       ... 1585
 # of contracted shells                  ...  401
 # of contracted aux-basis functions     ... 1317
 Highest angular momentum                ...    6
 Maximum contraction depth               ...    5
Ratio of auxiliary to basis functions    ...  1.83
Integral package used                  ... LIBINT
 One Electron integrals                  
   ECP integrals                         ... done
 Ordering auxiliary basis shells         ... done
 Integral threshhold             Thresh  ...  1.000e-10
 Primitive cut-off               TCut    ...  1.000e-11
 Pre-screening matrix                    ... done
 Shell pair data                         ... 
 Ordering of the shell pairs             ... done (   0.005 sec) 30801 of 35778 pairs
 Determination of significant pairs      ... done (   0.000 sec)
 Creation of shell pair data             ... done (   0.003 sec)
 Storage of shell pair data              ... done (   0.013 sec)
 Shell pair data done in (   0.021 sec)
 Computing two index integrals           ... done
 Cholesky decomposition of the V-matrix  ... done


Timings:
 Total evaluation time                   ...   3.057 sec (  0.051 min)
 One electron matrix time                ...   2.567 sec (  0.043 min) = 84.0%
 Schwartz matrix evaluation time         ...   0.262 sec (  0.004 min) =  8.6%
 Two index repulsion integral time       ...   0.096 sec (  0.002 min) =  3.1%
 Cholesky decomposition of V             ...   0.078 sec (  0.001 min) =  2.6%
 Three index repulsion integral time     ...   0.000 sec (  0.000 min) =  0.0%



           ************************************************************
           *        Program running with 24 parallel MPI-processes    *
           *              working on a common directory               *
           ************************************************************
-------------------------------------------------------------------------------
                                 ORCA SCF
-------------------------------------------------------------------------------

------------
SCF SETTINGS
------------
Hamiltonian:
 Density Functional     Method          .... DFT(GTOs)
 Exchange Functional    Exchange        .... B88
   X-Alpha parameter    XAlpha          ....  0.666667
   Becke's b parameter  XBeta           ....  0.004200
 Correlation Functional Correlation     .... LYP
 LDA part of GGA corr.  LDAOpt          .... VWN-5
 Gradients option       PostSCFGGA      .... off
 Hybrid DFT is turned on
   Fraction HF Exchange ScalHFX         ....  0.710000
   Scaling of DF-GGA-X  ScalDFX         ....  0.290000
   Scaling of DF-GGA-C  ScalDFC         ....  0.540000
   Scaling of DF-LDA-C  ScalLDAC        ....  0.540000
   Perturbative correction              ....  1.000000
   Density functional embedding theory  .... OFF
 RI-approximation to the Coulomb term is turned on
   Number of auxiliary basis functions  .... 1317
   RI-JK (J+K treated both via RI)      .... on


General Settings:
 Integral files         IntName         .... TMB09_T1
 Hartree-Fock type      HFTyp           .... RHF
 Total Charge           Charge          ....    0
 Multiplicity           Mult            ....    1
 Number of Electrons    NEL             ....   96
 Basis Dimension        Dim             ....  721
 Nuclear Repulsion      ENuc            ....    772.8237984215 Eh

Convergence Acceleration:
 DIIS                   CNVDIIS         .... on
   Start iteration      DIISMaxIt       ....    12
   Startup error        DIISStart       ....  0.200000
   # of expansion vecs  DIISMaxEq       ....     5
   Bias factor          DIISBfac        ....   1.050
   Max. coefficient     DIISMaxC        ....  10.000
 Newton-Raphson         CNVNR           .... off
 SOSCF                  CNVSOSCF        .... off
 Level Shifting         CNVShift        .... on
   Level shift para.    LevelShift      ....    0.2500
   Turn off err/grad.   ShiftErr        ....    0.0010
 Zerner damping         CNVZerner       .... off
 Static damping         CNVDamp         .... on
   Fraction old density DampFac         ....    0.7000
   Max. Damping (<1)    DampMax         ....    0.9800
   Min. Damping (>=0)   DampMin         ....    0.0000
   Turn off err/grad.   DampErr         ....    0.1000
 Fernandez-Rico         CNVRico         .... off

SCF Procedure:
 Maximum # iterations   MaxIter         ....   125
 SCF integral mode      SCFMode         .... Direct
   Integral package                     .... LIBINT
 Reset frequency        DirectResetFreq ....    20
 Integral Threshold     Thresh          ....  1.000e-10 Eh
 Primitive CutOff       TCut            ....  1.000e-11 Eh

Convergence Tolerance:
 Convergence Check Mode ConvCheckMode   .... Total+1el-Energy
 Convergence forced     ConvForced      .... 0
 Energy Change          TolE            ....  1.000e-06 Eh
 1-El. energy change                    ....  1.000e-03 Eh
 DIIS Error             TolErr          ....  1.000e-06


Diagonalization of the overlap matrix:
Smallest eigenvalue                        ... 2.613e-06
Time for diagonalization                   ...    0.111 sec
Threshold for overlap eigenvalues          ... 1.000e-08
Number of eigenvalues below threshold      ... 0
Time for construction of square roots      ...    0.072 sec
Total time needed                          ...    0.185 sec

-------------------
DFT GRID GENERATION
-------------------

General Integration Accuracy     IntAcc      ...  4.670
Radial Grid Type                 RadialGrid  ... Gauss-Chebyshev
Angular Grid (max. acc.)         AngularGrid ... Lebedev-302
Angular grid pruning method      GridPruning ... 3 (G Style)
Weight generation scheme         WeightScheme... Becke
Basis function cutoff            BFCut       ...    1.0000e-10
Integration weight cutoff        WCut        ...    1.0000e-14
Grids for H and He will be reduced by one unit

# of grid points (after initial pruning)     ... 130416 (   0.0 sec)
# of grid points (after weights+screening)   ... 116069 (   0.1 sec)
nearest neighbour list constructed           ...    0.0 sec
Grid point re-assignment to atoms done       ...    0.0 sec
Grid point division into batches done        ...    0.3 sec
Reduced shell lists constructed in    0.7 sec

Total number of grid points                  ...   116069
Total number of batches                      ...     1829
Average number of points per batch           ...       63
Average number of grid points per atom       ...     4145
Average number of shells per batch           ...   194.05 (72.68%)
Average number of basis functions per batch  ...   535.85 (74.32%)
Average number of large shells per batch     ...   151.29 (77.97%)
Average number of large basis fcns per batch ...   410.37 (76.58%)
Average number of aux-shells per batch       ...   194.05 (48.39%)
Average number of aux functions per batch    ...   535.85 (40.69%)
Maximum spatial batch extension              ...   2.09,  2.19,  2.23 au
Average spatial batch extension              ...   0.05,  0.05,  0.05 au

Time for grid setup =    0.851 sec

------------------------------
INITIAL GUESS: MODEL POTENTIAL
------------------------------
Loading Hartree-Fock densities                     ... done
  calling /sw/apps/orca/orca_4_2_0_linux_x86-64_openmpi314/orca TMB09_T1_atom42.inp > TMB09_T1_atom42.out in order to generate an atomic fitting density for atom 0 (Mo with ECP) on-the-fly... 
    atom 0 (Mo), assumed electronic state with S=5: 1s2 2s2 2p6 3s2 3p6 4s2 3d10 4p6 5s2 4d4           ... done
Calculating cut-offs                               ... done
Setting up the integral package                    ... done
Initializing the effective Hamiltonian             ... done
Starting the Coulomb interaction                   ... done (   0.1 sec)
Reading the grid                                   ... done
Mapping shells                                     ... done
Starting the XC term evaluation                    ... done (   0.3 sec)
  promolecular density results
     # of electrons  =    123.992171550
     EX              =   -183.723805002
     EC              =     -0.627339413
     EX+EC           =   -184.351144415
Transforming the Hamiltonian                       ... done (   0.0 sec)
Diagonalizing the Hamiltonian                      ... done (   0.1 sec)
Back transforming the eigenvectors                 ... done (   0.0 sec)
Now organizing SCF variables                       ... done
                      ------------------
                      INITIAL GUESS DONE (   3.1 sec)
                      ------------------
--------------
SCF ITERATIONS
--------------
ITER       Energy         Delta-E        Max-DP      RMS-DP      [F,P]     Damp
  0   -547.9249310406   0.000000000000 0.40725930  0.00130427  0.3395956 0.7000
  1   -547.6627130792   0.262217961382 0.29324728  0.00118276  0.2711737 0.7000
  2   -547.7824912213  -0.119778142071 0.12335385  0.00073385  0.2062398 0.7000
                               ***Turning on DIIS***
  3   -548.0637066574  -0.281215436079 0.21082961  0.00064568  0.1443324 0.7000
  4   -548.3416931585  -0.277986501099 0.59829620  0.00169548  0.0915414 0.0000
  5   -548.5328783296  -0.191185171164 0.09807673  0.00025155  0.1237015 0.7000
  6   -548.5510813411  -0.018203011437 0.09765561  0.00025704  0.1107313 0.7000
  7   -548.5675160756  -0.016434734566 0.24424513  0.00067437  0.0776814 0.0000
  8   -548.5813506149  -0.013834539266 0.03770015  0.00021289  0.0417928 0.0000
  9   -548.5861451706  -0.004794555671 0.01327525  0.00007555  0.0073606 0.0000
 10   -548.5865246329  -0.000379462356 0.02223863  0.00006396  0.0032318 0.0000
 11   -548.5866065911  -0.000081958217 0.01172827  0.00003698  0.0014692 0.0000
 12   -548.5866316967  -0.000025105584 0.00886821  0.00002546  0.0007274 0.0000
 13   -548.5866403156  -0.000008618927 0.00265986  0.00001100  0.0004135 0.0000
 14   -548.5866418605  -0.000001544902 0.00140581  0.00000559  0.0003876 0.0000
 15   -548.5866423399  -0.000000479366 0.00117809  0.00000722  0.0002307 0.0000
                 **** Energy Check signals convergence ****

               *****************************************************
               *                     SUCCESS                       *
               *           SCF CONVERGED AFTER  16 CYCLES          *
               *****************************************************


----------------
TOTAL SCF ENERGY
----------------

Total Energy       :         -548.58664259 Eh          -14927.80146 eV

Components:
Nuclear Repulsion  :          772.82379842 Eh           21029.60468 eV
Electronic Energy  :        -1321.41044102 Eh          -35957.40614 eV
One Electron Energy:        -2306.65886767 Eh          -62767.37882 eV
Two Electron Energy:          985.24842665 Eh           26809.97268 eV

Virial components:
Potential Energy   :        -1050.30387882 Eh          -28580.22153 eV
Kinetic Energy     :          501.71723622 Eh           13652.42007 eV
Virial Ratio       :            2.09341797


DFT components:
N(Alpha)           :       47.999971655929 electrons
N(Beta)            :       47.999971655929 electrons
N(Total)           :       95.999943311858 electrons
E(X)               :      -21.088443624751 Eh       
E(C)               :       -1.723470037629 Eh       
E(XC)              :      -22.811913662380 Eh       
DFET-embed. en.    :        0.000000000000 Eh       

---------------
SCF CONVERGENCE
---------------

  Last Energy change         ...   -2.5508e-07  Tolerance :   1.0000e-06
  Last MAX-Density change    ...    2.3454e-03  Tolerance :   1.0000e-05
  Last RMS-Density change    ...    8.0335e-06  Tolerance :   1.0000e-06
  Last DIIS Error            ...    1.5094e-04  Tolerance :   1.0000e-06

             **** THE GBW FILE WAS UPDATED (TMB09_T1.gbw) ****
             **** DENSITY FILE WAS UPDATED (TMB09_T1.scfp) ****
             **** ENERGY FILE WAS UPDATED (TMB09_T1.en.tmp) ****
             **** THE GBW FILE WAS UPDATED (TMB09_T1.gbw) ****
             **** DENSITY FILE WAS UPDATED (TMB09_T1.scfp) ****
----------------
ORBITAL ENERGIES
----------------

  NO   OCC          E(Eh)            E(eV) 
   0   2.0000     -19.993543      -544.0520 
   1   2.0000     -19.991429      -543.9944 
   2   2.0000     -15.111336      -411.2003 
   3   2.0000     -10.897508      -296.5363 
   4   2.0000     -10.883847      -296.1645 
   5   2.0000     -10.882845      -296.1373 
   6   2.0000     -10.875202      -295.9293 
   7   2.0000     -10.869324      -295.7694 
   8   2.0000     -10.863984      -295.6240 
   9   2.0000     -10.857562      -295.4493 
  10   2.0000      -2.942465       -80.0685 
  11   2.0000      -1.849394       -50.3246 
  12   2.0000      -1.837139       -49.9911 
  13   2.0000      -1.828765       -49.7632 
  14   2.0000      -1.162166       -31.6241 
  15   2.0000      -1.152553       -31.3626 
  16   2.0000      -1.019529       -27.7428 
  17   2.0000      -0.984090       -26.7785 
  18   2.0000      -0.866093       -23.5676 
  19   2.0000      -0.812914       -22.1205 
  20   2.0000      -0.796709       -21.6796 
  21   2.0000      -0.789128       -21.4733 
  22   2.0000      -0.768573       -20.9139 
  23   2.0000      -0.710850       -19.3432 
  24   2.0000      -0.601852       -16.3772 
  25   2.0000      -0.564794       -15.3688 
  26   2.0000      -0.555179       -15.1072 
  27   2.0000      -0.550790       -14.9878 
  28   2.0000      -0.546506       -14.8712 
  29   2.0000      -0.541200       -14.7268 
  30   2.0000      -0.536218       -14.5912 
  31   2.0000      -0.530035       -14.4230 
  32   2.0000      -0.522194       -14.2096 
  33   2.0000      -0.517811       -14.0904 
  34   2.0000      -0.512292       -13.9402 
  35   2.0000      -0.494530       -13.4568 
  36   2.0000      -0.489255       -13.3133 
  37   2.0000      -0.482724       -13.1356 
  38   2.0000      -0.457545       -12.4504 
  39   2.0000      -0.446142       -12.1402 
  40   2.0000      -0.398843       -10.8531 
  41   2.0000      -0.379748       -10.3335 
  42   2.0000      -0.372228       -10.1289 
  43   2.0000      -0.357577        -9.7302 
  44   2.0000      -0.351407        -9.5623 
  45   2.0000      -0.329907        -8.9772 
  46   2.0000      -0.318996        -8.6803 
  47   2.0000      -0.286617        -7.7992 
  48   0.0000       0.023866         0.6494 
  49   0.0000       0.037607         1.0233 
  50   0.0000       0.040419         1.0999 
  51   0.0000       0.050571         1.3761 
  52   0.0000       0.057738         1.5711 
  53   0.0000       0.059268         1.6128 
  54   0.0000       0.061493         1.6733 
  55   0.0000       0.071724         1.9517 
  56   0.0000       0.072518         1.9733 
  57   0.0000       0.080021         2.1775 
  58   0.0000       0.084135         2.2894 
  59   0.0000       0.087021         2.3680 
  60   0.0000       0.095321         2.5938 
  61   0.0000       0.100608         2.7377 
  62   0.0000       0.108406         2.9499 
  63   0.0000       0.118608         3.2275 
  64   0.0000       0.126184         3.4337 
  65   0.0000       0.130021         3.5381 
  66   0.0000       0.136973         3.7272 
  67   0.0000       0.141628         3.8539 
  68   0.0000       0.142525         3.8783 
  69   0.0000       0.143694         3.9101 
  70   0.0000       0.155712         4.2371 
  71   0.0000       0.162659         4.4262 
  72   0.0000       0.169238         4.6052 
  73   0.0000       0.169906         4.6234 
  74   0.0000       0.172834         4.7030 
  75   0.0000       0.179239         4.8773 
  76   0.0000       0.184202         5.0124 
  77   0.0000       0.187760         5.1092 
  78   0.0000       0.193905         5.2764 
  79   0.0000       0.202226         5.5029 
  80   0.0000       0.206649         5.6232 
  81   0.0000       0.211286         5.7494 
  82   0.0000       0.216357         5.8874 
  83   0.0000       0.221862         6.0372 
  84   0.0000       0.224127         6.0988 
  85   0.0000       0.229125         6.2348 
  86   0.0000       0.231756         6.3064 
  87   0.0000       0.236702         6.4410 
  88   0.0000       0.239877         6.5274 
  89   0.0000       0.243452         6.6247 
  90   0.0000       0.250842         6.8258 
  91   0.0000       0.257889         7.0175 
  92   0.0000       0.263924         7.1817 
  93   0.0000       0.268031         7.2935 
  94   0.0000       0.270227         7.3532 
  95   0.0000       0.277117         7.5407 
  96   0.0000       0.287144         7.8136 
  97   0.0000       0.291514         7.9325 
  98   0.0000       0.293117         7.9761 
  99   0.0000       0.296232         8.0609 
 100   0.0000       0.297392         8.0924 
 101   0.0000       0.304092         8.2748 
 102   0.0000       0.306593         8.3428 
 103   0.0000       0.309991         8.4353 
 104   0.0000       0.315260         8.5787 
 105   0.0000       0.321781         8.7561 
 106   0.0000       0.327072         8.9001 
 107   0.0000       0.328845         8.9483 
 108   0.0000       0.331983         9.0337 
 109   0.0000       0.332710         9.0535 
 110   0.0000       0.340806         9.2738 
 111   0.0000       0.344835         9.3834 
 112   0.0000       0.346295         9.4232 
 113   0.0000       0.348412         9.4808 
 114   0.0000       0.351123         9.5545 
 115   0.0000       0.355003         9.6601 
 116   0.0000       0.358839         9.7645 
 117   0.0000       0.361277         9.8308 
 118   0.0000       0.363325         9.8866 
 119   0.0000       0.367176         9.9914 
 120   0.0000       0.371396        10.1062 
 121   0.0000       0.377021        10.2593 
 122   0.0000       0.378148        10.2899 
 123   0.0000       0.385857        10.4997 
 124   0.0000       0.388387        10.5685 
 125   0.0000       0.389853        10.6084 
 126   0.0000       0.393903        10.7187 
 127   0.0000       0.397367        10.8129 
 128   0.0000       0.405819        11.0429 
 129   0.0000       0.408593        11.1184 
 130   0.0000       0.409974        11.1560 
 131   0.0000       0.413304        11.2466 
 132   0.0000       0.415250        11.2995 
 133   0.0000       0.418070        11.3763 
 134   0.0000       0.425217        11.5707 
 135   0.0000       0.429270        11.6810 
 136   0.0000       0.432854        11.7785 
 137   0.0000       0.436572        11.8797 
 138   0.0000       0.437186        11.8964 
 139   0.0000       0.443048        12.0560 
 140   0.0000       0.443625        12.0716 
 141   0.0000       0.445773        12.1301 
 142   0.0000       0.451456        12.2847 
 143   0.0000       0.456687        12.4271 
 144   0.0000       0.457560        12.4508 
 145   0.0000       0.465973        12.6798 
 146   0.0000       0.469468        12.7749 
 147   0.0000       0.472240        12.8503 
 148   0.0000       0.477376        12.9901 
 149   0.0000       0.481579        13.1044 
 150   0.0000       0.487776        13.2731 
 151   0.0000       0.490240        13.3401 
 152   0.0000       0.491865        13.3843 
 153   0.0000       0.495720        13.4892 
 154   0.0000       0.499907        13.6032 
 155   0.0000       0.506477        13.7819 
 156   0.0000       0.510159        13.8821 
 157   0.0000       0.511633        13.9222 
 158   0.0000       0.516194        14.0463 
 159   0.0000       0.521274        14.1846 
 160   0.0000       0.524212        14.2645 
 161   0.0000       0.526043        14.3143 
 162   0.0000       0.529101        14.3976 
 163   0.0000       0.538249        14.6465 
 164   0.0000       0.540503        14.7078 
 165   0.0000       0.550747        14.9866 
 166   0.0000       0.551404        15.0045 
 167   0.0000       0.555586        15.1183 
 168   0.0000       0.561404        15.2766 
 169   0.0000       0.561739        15.2857 
 170   0.0000       0.569344        15.4926 
 171   0.0000       0.572521        15.5791 
 172   0.0000       0.580860        15.8060 
 173   0.0000       0.586808        15.9678 
 174   0.0000       0.593473        16.1492 
 175   0.0000       0.595292        16.1987 
 176   0.0000       0.598774        16.2935 
 177   0.0000       0.601654        16.3718 
 178   0.0000       0.606752        16.5106 
 179   0.0000       0.614642        16.7253 
 180   0.0000       0.618685        16.8353 
 181   0.0000       0.623090        16.9551 
 182   0.0000       0.630483        17.1563 
 183   0.0000       0.637506        17.3474 
 184   0.0000       0.642812        17.4918 
 185   0.0000       0.646988        17.6054 
 186   0.0000       0.653478        17.7820 
 187   0.0000       0.662693        18.0328 
 188   0.0000       0.670126        18.2350 
 189   0.0000       0.674516        18.3545 
 190   0.0000       0.679267        18.4838 
 191   0.0000       0.685324        18.6486 
 192   0.0000       0.692630        18.8474 
 193   0.0000       0.696910        18.9639 
 194   0.0000       0.702818        19.1247 
 195   0.0000       0.710573        19.3357 
 196   0.0000       0.718742        19.5580 
 197   0.0000       0.725083        19.7305 
 198   0.0000       0.732056        19.9202 
 199   0.0000       0.738257        20.0890 
 200   0.0000       0.746112        20.3027 
 201   0.0000       0.748194        20.3594 
 202   0.0000       0.750934        20.4340 
 203   0.0000       0.758125        20.6296 
 204   0.0000       0.768338        20.9075 
 205   0.0000       0.770058        20.9543 
 206   0.0000       0.772483        21.0203 
 207   0.0000       0.778371        21.1805 
 208   0.0000       0.781175        21.2569 
 209   0.0000       0.786536        21.4027 
 210   0.0000       0.791337        21.5334 
 211   0.0000       0.792779        21.5726 
 212   0.0000       0.800798        21.7908 
 213   0.0000       0.801877        21.8202 
 214   0.0000       0.806313        21.9409 
 215   0.0000       0.813091        22.1253 
 216   0.0000       0.817215        22.2376 
 217   0.0000       0.823457        22.4074 
 218   0.0000       0.830822        22.6078 
 219   0.0000       0.838427        22.8148 
 220   0.0000       0.843061        22.9408 
 221   0.0000       0.844290        22.9743 
 222   0.0000       0.852057        23.1856 
 223   0.0000       0.854164        23.2430 
 224   0.0000       0.856924        23.3181 
 225   0.0000       0.859862        23.3980 
 226   0.0000       0.864306        23.5190 
 227   0.0000       0.870406        23.6849 
 228   0.0000       0.873199        23.7609 
 229   0.0000       0.877173        23.8691 
 230   0.0000       0.885619        24.0989 
 231   0.0000       0.885923        24.1072 
 232   0.0000       0.892193        24.2778 
 233   0.0000       0.902589        24.5607 
 234   0.0000       0.909162        24.7396 
 235   0.0000       0.915355        24.9081 
 236   0.0000       0.921585        25.0776 
 237   0.0000       0.931042        25.3349 
 238   0.0000       0.937180        25.5020 
 239   0.0000       0.941408        25.6170 
 240   0.0000       0.954185        25.9647 
 241   0.0000       0.963498        26.2181 
 242   0.0000       0.971479        26.4353 
 243   0.0000       0.986570        26.8459 
 244   0.0000       0.987000        26.8576 
 245   0.0000       0.988254        26.8917 
 246   0.0000       0.998115        27.1601 
 247   0.0000       1.013718        27.5847 
 248   0.0000       1.032016        28.0826 
 249   0.0000       1.039011        28.2729 
 250   0.0000       1.044221        28.4147 
 251   0.0000       1.064148        28.9569 
 252   0.0000       1.067994        29.0616 
 253   0.0000       1.075207        29.2579 
 254   0.0000       1.094161        29.7736 
 255   0.0000       1.099579        29.9211 
 256   0.0000       1.110684        30.2232 
 257   0.0000       1.116666        30.3860 
 258   0.0000       1.129081        30.7239 
 259   0.0000       1.142970        31.1018 
 260   0.0000       1.148922        31.2638 
 261   0.0000       1.158003        31.5109 
 262   0.0000       1.166023        31.7291 
 263   0.0000       1.177165        32.0323 
 264   0.0000       1.184554        32.2334 
 265   0.0000       1.193342        32.4725 
 266   0.0000       1.199258        32.6335 
 267   0.0000       1.202033        32.7090 
 268   0.0000       1.209044        32.8998 
 269   0.0000       1.214418        33.0460 
 270   0.0000       1.223684        33.2981 
 271   0.0000       1.230732        33.4899 
 272   0.0000       1.242623        33.8135 
 273   0.0000       1.251352        34.0510 
 274   0.0000       1.255566        34.1657 
 275   0.0000       1.264330        34.4042 
 276   0.0000       1.275872        34.7182 
 277   0.0000       1.278947        34.8019 
 278   0.0000       1.284076        34.9415 
 279   0.0000       1.296753        35.2864 
 280   0.0000       1.301841        35.4249 
 281   0.0000       1.312132        35.7049 
 282   0.0000       1.317865        35.8609 
 283   0.0000       1.329830        36.1865 
 284   0.0000       1.333352        36.2824 
 285   0.0000       1.338039        36.4099 
 286   0.0000       1.347110        36.6567 
 287   0.0000       1.356441        36.9106 
 288   0.0000       1.359225        36.9864 
 289   0.0000       1.364458        37.1288 
 290   0.0000       1.372349        37.3435 
 291   0.0000       1.383620        37.6502 
 292   0.0000       1.395776        37.9810 
 293   0.0000       1.400029        38.0967 
 294   0.0000       1.404924        38.2299 
 295   0.0000       1.418879        38.6097 
 296   0.0000       1.427108        38.8336 
 297   0.0000       1.436634        39.0928 
 298   0.0000       1.442586        39.2548 
 299   0.0000       1.444735        39.3132 
 300   0.0000       1.446779        39.3689 
 301   0.0000       1.456808        39.6418 
 302   0.0000       1.462468        39.7958 
 303   0.0000       1.471600        40.0443 
 304   0.0000       1.483039        40.3555 
 305   0.0000       1.492910        40.6242 
 306   0.0000       1.494586        40.6697 
 307   0.0000       1.500521        40.8312 
 308   0.0000       1.506060        40.9820 
 309   0.0000       1.514091        41.2005 
 310   0.0000       1.519992        41.3611 
 311   0.0000       1.530983        41.6602 
 312   0.0000       1.536907        41.8214 
 313   0.0000       1.547284        42.1037 
 314   0.0000       1.551281        42.2125 
 315   0.0000       1.557757        42.3887 
 316   0.0000       1.565139        42.5896 
 317   0.0000       1.574911        42.8555 
 318   0.0000       1.577132        42.9159 
 319   0.0000       1.592050        43.3219 
 320   0.0000       1.594901        43.3995 
 321   0.0000       1.599040        43.5121 
 322   0.0000       1.608608        43.7724 
 323   0.0000       1.610021        43.8109 
 324   0.0000       1.623223        44.1701 
 325   0.0000       1.631303        44.3900 
 326   0.0000       1.641355        44.6636 
 327   0.0000       1.646701        44.8090 
 328   0.0000       1.655476        45.0478 
 329   0.0000       1.665666        45.3251 
 330   0.0000       1.675630        45.5962 
 331   0.0000       1.685617        45.8680 
 332   0.0000       1.692701        46.0607 
 333   0.0000       1.701200        46.2920 
 334   0.0000       1.725229        46.9459 
 335   0.0000       1.730069        47.0776 
 336   0.0000       1.734420        47.1960 
 337   0.0000       1.743648        47.4471 
 338   0.0000       1.754397        47.7396 
 339   0.0000       1.758511        47.8515 
 340   0.0000       1.761719        47.9388 
 341   0.0000       1.775515        48.3142 
 342   0.0000       1.785793        48.5939 
 343   0.0000       1.788270        48.6613 
 344   0.0000       1.801128        49.0112 
 345   0.0000       1.815992        49.4157 
 346   0.0000       1.816724        49.4356 
 347   0.0000       1.824627        49.6506 
 348   0.0000       1.831679        49.8425 
 349   0.0000       1.835215        49.9387 
 350   0.0000       1.844497        50.1913 
 351   0.0000       1.850698        50.3601 
 352   0.0000       1.865261        50.7563 
 353   0.0000       1.870047        50.8866 
 354   0.0000       1.891851        51.4799 
 355   0.0000       1.907213        51.8979 
 356   0.0000       1.921574        52.2887 
 357   0.0000       1.945652        52.9439 
 358   0.0000       1.961976        53.3881 
 359   0.0000       1.984733        54.0073 
 360   0.0000       1.991846        54.2009 
 361   0.0000       1.996949        54.3397 
 362   0.0000       2.018444        54.9246 
 363   0.0000       2.046559        55.6897 
 364   0.0000       2.054689        55.9109 
 365   0.0000       2.077674        56.5364 
 366   0.0000       2.080260        56.6068 
 367   0.0000       2.092099        56.9289 
 368   0.0000       2.116650        57.5970 
 369   0.0000       2.124452        57.8093 
 370   0.0000       2.129560        57.9483 
 371   0.0000       2.135661        58.1143 
 372   0.0000       2.152727        58.5787 
 373   0.0000       2.162199        58.8364 
 374   0.0000       2.164891        58.9097 
 375   0.0000       2.190088        59.5953 
 376   0.0000       2.194892        59.7260 
 377   0.0000       2.210212        60.1429 
 378   0.0000       2.219897        60.4065 
 379   0.0000       2.249036        61.1994 
 380   0.0000       2.259956        61.4965 
 381   0.0000       2.269873        61.7664 
 382   0.0000       2.312181        62.9176 
 383   0.0000       2.319663        63.1212 
 384   0.0000       2.330706        63.4217 
 385   0.0000       2.345065        63.8124 
 386   0.0000       2.381119        64.7935 
 387   0.0000       2.405146        65.4474 
 388   0.0000       2.446039        66.5601 
 389   0.0000       2.455439        66.8159 
 390   0.0000       2.463420        67.0331 
 391   0.0000       2.467551        67.1455 
 392   0.0000       2.487726        67.6945 
 393   0.0000       2.513823        68.4046 
 394   0.0000       2.525508        68.7226 
 395   0.0000       2.540509        69.1308 
 396   0.0000       2.559428        69.6456 
 397   0.0000       2.580669        70.2236 
 398   0.0000       2.610947        71.0475 
 399   0.0000       2.618674        71.2577 
 400   0.0000       2.658608        72.3444 
 401   0.0000       2.692726        73.2728 
 402   0.0000       2.710010        73.7431 
 403   0.0000       2.718828        73.9831 
 404   0.0000       2.753403        74.9239 
 405   0.0000       2.767399        75.3048 
 406   0.0000       2.793595        76.0176 
 407   0.0000       2.810309        76.4724 
 408   0.0000       2.814341        76.5821 
 409   0.0000       2.833783        77.1112 
 410   0.0000       2.839566        77.2685 
 411   0.0000       2.858427        77.7818 
 412   0.0000       2.884876        78.5015 
 413   0.0000       2.918991        79.4298 
 414   0.0000       2.923279        79.5465 
 415   0.0000       2.947040        80.1930 
 416   0.0000       2.948082        80.2214 
 417   0.0000       2.954551        80.3974 
 418   0.0000       2.964304        80.6628 
 419   0.0000       2.976607        80.9976 
 420   0.0000       2.990115        81.3652 
 421   0.0000       2.998827        81.6022 
 422   0.0000       3.000153        81.6383 
 423   0.0000       3.016055        82.0710 
 424   0.0000       3.025232        82.3208 
 425   0.0000       3.030432        82.4622 
 426   0.0000       3.035415        82.5979 
 427   0.0000       3.036610        82.6304 
 428   0.0000       3.050733        83.0147 
 429   0.0000       3.059131        83.2432 
 430   0.0000       3.064073        83.3777 
 431   0.0000       3.069560        83.5270 
 432   0.0000       3.078066        83.7584 
 433   0.0000       3.080511        83.8250 
 434   0.0000       3.087238        84.0080 
 435   0.0000       3.093727        84.1846 
 436   0.0000       3.097376        84.2839 
 437   0.0000       3.101584        84.3984 
 438   0.0000       3.105354        84.5010 
 439   0.0000       3.112622        84.6987 
 440   0.0000       3.123073        84.9831 
 441   0.0000       3.134663        85.2985 
 442   0.0000       3.139458        85.4290 
 443   0.0000       3.151670        85.7613 
 444   0.0000       3.170609        86.2767 
 445   0.0000       3.179519        86.5191 
 446   0.0000       3.187981        86.7494 
 447   0.0000       3.193740        86.9061 
 448   0.0000       3.201303        87.1119 
 449   0.0000       3.216788        87.5333 
 450   0.0000       3.225446        87.7689 
 451   0.0000       3.233747        87.9947 
 452   0.0000       3.238339        88.1197 
 453   0.0000       3.265813        88.8673 
 454   0.0000       3.272560        89.0509 
 455   0.0000       3.276904        89.1691 
 456   0.0000       3.287096        89.4464 
 457   0.0000       3.291331        89.5617 
 458   0.0000       3.297377        89.7262 
 459   0.0000       3.306244        89.9675 
 460   0.0000       3.309422        90.0539 
 461   0.0000       3.314723        90.1982 
 462   0.0000       3.326173        90.5098 
 463   0.0000       3.329606        90.6032 
 464   0.0000       3.336504        90.7909 
 465   0.0000       3.346572        91.0649 
 466   0.0000       3.362934        91.5101 
 467   0.0000       3.368584        91.6638 
 468   0.0000       3.391928        92.2990 
 469   0.0000       3.398060        92.4659 
 470   0.0000       3.407739        92.7293 
 471   0.0000       3.430173        93.3398 
 472   0.0000       3.437127        93.5290 
 473   0.0000       3.445883        93.7672 
 474   0.0000       3.457578        94.0855 
 475   0.0000       3.463322        94.2418 
 476   0.0000       3.476646        94.6044 
 477   0.0000       3.486205        94.8645 
 478   0.0000       3.493204        95.0549 
 479   0.0000       3.496816        95.1532 
 480   0.0000       3.517542        95.7172 
 481   0.0000       3.530787        96.0776 
 482   0.0000       3.535606        96.2087 
 483   0.0000       3.550698        96.6194 
 484   0.0000       3.556505        96.7774 
 485   0.0000       3.573160        97.2306 
 486   0.0000       3.579314        97.3981 
 487   0.0000       3.582323        97.4800 
 488   0.0000       3.593115        97.7736 
 489   0.0000       3.602745        98.0357 
 490   0.0000       3.604815        98.0920 
 491   0.0000       3.614551        98.3569 
 492   0.0000       3.618724        98.4705 
 493   0.0000       3.632072        98.8337 
 494   0.0000       3.636464        98.9532 
 495   0.0000       3.650425        99.3331 
 496   0.0000       3.653525        99.4175 
 497   0.0000       3.669762        99.8593 
 498   0.0000       3.680228       100.1441 
 499   0.0000       3.685961       100.3001 
 500   0.0000       3.705331       100.8272 
 501   0.0000       3.714062       101.0648 
 502   0.0000       3.718426       101.1835 
 503   0.0000       3.727599       101.4331 
 504   0.0000       3.732840       101.5757 
 505   0.0000       3.739201       101.7488 
 506   0.0000       3.745668       101.9248 
 507   0.0000       3.750850       102.0658 
 508   0.0000       3.758207       102.2660 
 509   0.0000       3.763063       102.3982 
 510   0.0000       3.784747       102.9882 
 511   0.0000       3.786774       103.0434 
 512   0.0000       3.788300       103.0849 
 513   0.0000       3.811374       103.7127 
 514   0.0000       3.817142       103.8697 
 515   0.0000       3.818889       103.9172 
 516   0.0000       3.833624       104.3182 
 517   0.0000       3.849073       104.7386 
 518   0.0000       3.856147       104.9311 
 519   0.0000       3.881737       105.6274 
 520   0.0000       3.891227       105.8857 
 521   0.0000       3.902469       106.1916 
 522   0.0000       3.905493       106.2739 
 523   0.0000       3.928923       106.9114 
 524   0.0000       3.932735       107.0152 
 525   0.0000       3.949328       107.4667 
 526   0.0000       3.955315       107.6296 
 527   0.0000       3.959376       107.7401 
 528   0.0000       3.960282       107.7647 
 529   0.0000       3.980690       108.3201 
 530   0.0000       3.993937       108.6806 
 531   0.0000       4.003641       108.9446 
 532   0.0000       4.014357       109.2362 
 533   0.0000       4.024857       109.5219 
 534   0.0000       4.028567       109.6229 
 535   0.0000       4.045899       110.0945 
 536   0.0000       4.057020       110.3971 
 537   0.0000       4.060150       110.4823 
 538   0.0000       4.077365       110.9507 
 539   0.0000       4.087103       111.2157 
 540   0.0000       4.096780       111.4790 
 541   0.0000       4.109735       111.8316 
 542   0.0000       4.115713       111.9942 
 543   0.0000       4.131087       112.4126 
 544   0.0000       4.140226       112.6613 
 545   0.0000       4.146820       112.8407 
 546   0.0000       4.159554       113.1872 
 547   0.0000       4.173372       113.5632 
 548   0.0000       4.191211       114.0486 
 549   0.0000       4.192578       114.0858 
 550   0.0000       4.215478       114.7090 
 551   0.0000       4.234312       115.2215 
 552   0.0000       4.241471       115.4163 
 553   0.0000       4.248879       115.6179 
 554   0.0000       4.259942       115.9189 
 555   0.0000       4.271297       116.2279 
 556   0.0000       4.276023       116.3565 
 557   0.0000       4.287345       116.6646 
 558   0.0000       4.299391       116.9924 
 559   0.0000       4.319632       117.5432 
 560   0.0000       4.325467       117.7019 
 561   0.0000       4.334493       117.9475 
 562   0.0000       4.344349       118.2157 
 563   0.0000       4.348795       118.3367 
 564   0.0000       4.364241       118.7570 
 565   0.0000       4.367076       118.8342 
 566   0.0000       4.374945       119.0483 
 567   0.0000       4.385794       119.3435 
 568   0.0000       4.388285       119.4113 
 569   0.0000       4.391164       119.4896 
 570   0.0000       4.397836       119.6712 
 571   0.0000       4.406729       119.9132 
 572   0.0000       4.414340       120.1203 
 573   0.0000       4.425878       120.4343 
 574   0.0000       4.436111       120.7127 
 575   0.0000       4.441703       120.8649 
 576   0.0000       4.451974       121.1444 
 577   0.0000       4.464047       121.4729 
 578   0.0000       4.478524       121.8668 
 579   0.0000       4.503620       122.5497 
 580   0.0000       4.513363       122.8148 
 581   0.0000       4.519952       122.9941 
 582   0.0000       4.527969       123.2123 
 583   0.0000       4.529700       123.2594 
 584   0.0000       4.534730       123.3963 
 585   0.0000       4.539955       123.5385 
 586   0.0000       4.544655       123.6664 
 587   0.0000       4.560974       124.1104 
 588   0.0000       4.565643       124.2375 
 589   0.0000       4.583402       124.7207 
 590   0.0000       4.600780       125.1936 
 591   0.0000       4.604358       125.2909 
 592   0.0000       4.625780       125.8739 
 593   0.0000       4.634497       126.1111 
 594   0.0000       4.657268       126.7307 
 595   0.0000       4.660157       126.8093 
 596   0.0000       4.670029       127.0779 
 597   0.0000       4.679698       127.3411 
 598   0.0000       4.681070       127.3784 
 599   0.0000       4.733118       128.7947 
 600   0.0000       4.762547       129.5955 
 601   0.0000       4.797778       130.5542 
 602   0.0000       4.835452       131.5793 
 603   0.0000       4.839596       131.6921 
 604   0.0000       4.849055       131.9495 
 605   0.0000       4.856668       132.1567 
 606   0.0000       4.868489       132.4783 
 607   0.0000       4.883476       132.8861 
 608   0.0000       4.891984       133.1177 
 609   0.0000       4.909987       133.6075 
 610   0.0000       4.924459       134.0013 
 611   0.0000       4.931800       134.2011 
 612   0.0000       4.949721       134.6888 
 613   0.0000       4.960766       134.9893 
 614   0.0000       4.967411       135.1701 
 615   0.0000       4.979584       135.5014 
 616   0.0000       4.986867       135.6995 
 617   0.0000       5.002942       136.1370 
 618   0.0000       5.051705       137.4639 
 619   0.0000       5.071738       138.0090 
 620   0.0000       5.091532       138.5476 
 621   0.0000       5.095847       138.6651 
 622   0.0000       5.126677       139.5040 
 623   0.0000       5.132962       139.6750 
 624   0.0000       5.139670       139.8575 
 625   0.0000       5.176619       140.8630 
 626   0.0000       5.191755       141.2748 
 627   0.0000       5.204501       141.6217 
 628   0.0000       5.217381       141.9722 
 629   0.0000       5.229279       142.2959 
 630   0.0000       5.236370       142.4889 
 631   0.0000       5.240274       142.5951 
 632   0.0000       5.253422       142.9529 
 633   0.0000       5.262931       143.2116 
 634   0.0000       5.269341       143.3860 
 635   0.0000       5.278028       143.6224 
 636   0.0000       5.286435       143.8512 
 637   0.0000       5.293647       144.0475 
 638   0.0000       5.305728       144.3762 
 639   0.0000       5.325769       144.9216 
 640   0.0000       5.374952       146.2599 
 641   0.0000       5.383032       146.4797 
 642   0.0000       5.388082       146.6172 
 643   0.0000       5.417469       147.4168 
 644   0.0000       5.429982       147.7573 
 645   0.0000       5.454481       148.4240 
 646   0.0000       5.474603       148.9715 
 647   0.0000       5.488956       149.3621 
 648   0.0000       5.493683       149.4907 
 649   0.0000       5.523275       150.2960 
 650   0.0000       5.536239       150.6487 
 651   0.0000       5.553799       151.1266 
 652   0.0000       5.567248       151.4925 
 653   0.0000       5.581077       151.8688 
 654   0.0000       5.586078       152.0049 
 655   0.0000       5.594217       152.2264 
 656   0.0000       5.601286       152.4188 
 657   0.0000       5.607605       152.5907 
 658   0.0000       5.625596       153.0802 
 659   0.0000       5.641739       153.5195 
 660   0.0000       5.643954       153.5798 
 661   0.0000       5.662395       154.0816 
 662   0.0000       5.672152       154.3471 
 663   0.0000       5.692648       154.9048 
 664   0.0000       5.698886       155.0746 
 665   0.0000       5.708692       155.3414 
 666   0.0000       5.711854       155.4274 
 667   0.0000       5.721201       155.6818 
 668   0.0000       5.726666       155.8305 
 669   0.0000       5.741198       156.2259 
 670   0.0000       5.754823       156.5967 
 671   0.0000       5.778052       157.2288 
 672   0.0000       5.807209       158.0222 
 673   0.0000       5.829729       158.6350 
 674   0.0000       5.859631       159.4487 
 675   0.0000       5.878718       159.9681 
 676   0.0000       5.891276       160.3098 
 677   0.0000       5.904880       160.6800 
 678   0.0000       5.916733       161.0025 
 679   0.0000       5.929553       161.3513 
 680   0.0000       5.932710       161.4373 
 681   0.0000       5.941701       161.6819 
 682   0.0000       5.958082       162.1277 
 683   0.0000       5.992794       163.0722 
 684   0.0000       6.010475       163.5533 
 685   0.0000       6.052689       164.7020 
 686   0.0000       6.055432       164.7767 
 687   0.0000       6.085225       165.5874 
 688   0.0000       6.090461       165.7299 
 689   0.0000       6.149301       167.3310 
 690   0.0000       6.271183       170.6476 
 691   0.0000       6.306832       171.6176 
 692   0.0000       6.352962       172.8729 
 693   0.0000       6.379585       173.5973 
 694   0.0000       6.494346       176.7201 
 695   0.0000       6.553909       178.3409 
 696   0.0000       6.676817       181.6854 
 697   0.0000       6.791242       184.7991 
 698   0.0000       6.820363       185.5915 
 699   0.0000       7.007063       190.6719 
 700   0.0000       7.051562       191.8828 
 701   0.0000       7.116736       193.6562 
 702   0.0000       7.188405       195.6065 
 703   0.0000       7.356746       200.1872 
 704   0.0000       7.425383       202.0549 
 705   0.0000       7.635104       207.7618 
 706   0.0000       7.736224       210.5134 
 707   0.0000       7.823487       212.8879 
 708   0.0000       7.952193       216.3902 
 709   0.0000      24.002558       653.1428 
 710   0.0000      24.046286       654.3327 
 711   0.0000      24.264842       660.2799 
 712   0.0000      24.372468       663.2086 
 713   0.0000      24.387726       663.6238 
 714   0.0000      24.432009       664.8288 
 715   0.0000      24.501858       666.7294 
 716   0.0000      25.651969       698.0256 
 717   0.0000      34.091174       927.6680 
 718   0.0000      45.443877      1236.5908 
 719   0.0000      45.555986      1239.6414 
 720   0.0000      85.068498      2314.8315 

                    ********************************
                    * MULLIKEN POPULATION ANALYSIS *
                    ********************************

-----------------------
MULLIKEN ATOMIC CHARGES
-----------------------
   0 Mo:    0.866559
   1 C :    0.337197
   2 C :   -0.229210
   3 H :    0.085026
   4 H :    0.080868
   5 H :    0.119063
   6 C :   -0.131960
   7 C :    0.007394
   8 N :   -0.662515
   9 O :   -0.593815
  10 O :   -0.486955
  11 H :    0.057420
  12 H :    0.043108
  13 H :    0.067103
  14 H :    0.024272
  15 H :    0.016606
  16 H :    0.011960
  17 C :    0.179256
  18 C :    0.140523
  19 H :    0.058625
  20 H :    0.041133
  21 H :    0.126302
  22 H :    0.072260
  23 C :   -0.590451
  24 H :    0.029900
  25 H :    0.088632
  26 H :    0.050317
  27 H :    0.191381
Sum of atomic charges:   -0.0000000

--------------------------------
MULLIKEN REDUCED ORBITAL CHARGES
--------------------------------
  0 Mos       :     2.767687  s :     2.767687
      pz      :     2.273691  p :     6.440318
      px      :     2.127017
      py      :     2.039610
      dz2     :     0.727203  d :     3.695436
      dxz     :     0.939703
      dyz     :     0.721068
      dx2y2   :     0.646287
      dxy     :     0.661175
      f0      :     0.033593  f :     0.215628
      f+1     :     0.021547
      f-1     :     0.022109
      f+2     :     0.022055
      f-2     :     0.028249
      f+3     :     0.033025
      f-3     :     0.055050
      g0      :     0.001634  g :     0.014372
      g+1     :     0.001151
      g-1     :     0.001489
      g+2     :     0.001084
      g-2     :     0.001007
      g+3     :     0.001651
      g-3     :     0.001082
      g+4     :     0.002935
      g-4     :     0.002340
  1 C s       :     3.032493  s :     3.032493
      pz      :     0.994694  p :     2.665210
      px      :     0.804957
      py      :     0.865559
      dz2     :     0.001448  d :    -0.042034
      dxz     :    -0.015350
      dyz     :    -0.017320
      dx2y2   :    -0.016590
      dxy     :     0.005779
      f0      :     0.001204  f :     0.007133
      f+1     :     0.001484
      f-1     :     0.001471
      f+2     :     0.000567
      f-2     :     0.001049
      f+3     :     0.000752
      f-3     :     0.000605
  2 C s       :     3.184342  s :     3.184342
      pz      :     1.073621  p :     2.926266
      px      :     1.032281
      py      :     0.820365
      dz2     :     0.011602  d :     0.111677
      dxz     :     0.032630
      dyz     :     0.038881
      dx2y2   :     0.017656
      dxy     :     0.010909
      f0      :     0.000542  f :     0.006925
      f+1     :     0.000406
      f-1     :     0.001293
      f+2     :     0.001353
      f-2     :     0.000855
      f+3     :     0.001264
      f-3     :     0.001211
  3 H s       :     0.878509  s :     0.878509
      pz      :     0.015371  p :     0.034464
      px      :     0.005088
      py      :     0.014005
      dz2     :     0.000546  d :     0.002001
      dxz     :     0.000339
      dyz     :     0.000451
      dx2y2   :     0.000345
      dxy     :     0.000320
  4 H s       :     0.892804  s :     0.892804
      pz      :     0.000736  p :     0.024296
      px      :     0.017738
      py      :     0.005822
      dz2     :     0.000227  d :     0.002032
      dxz     :     0.000592
      dyz     :     0.000128
      dx2y2   :     0.000428
      dxy     :     0.000658
  5 H s       :     0.848332  s :     0.848332
      pz      :     0.007804  p :     0.030554
      px      :     0.014145
      py      :     0.008605
      dz2     :     0.000540  d :     0.002051
      dxz     :     0.000404
      dyz     :     0.000526
      dx2y2   :     0.000360
      dxy     :     0.000220
  6 C s       :     3.142707  s :     3.142707
      pz      :     0.998755  p :     2.811097
      px      :     0.819204
      py      :     0.993137
      dz2     :     0.049333  d :     0.167495
      dxz     :     0.034346
      dyz     :     0.019193
      dx2y2   :     0.010681
      dxy     :     0.053942
      f0      :     0.000840  f :     0.010660
      f+1     :     0.002052
      f-1     :     0.000814
      f+2     :     0.001376
      f-2     :     0.001754
      f+3     :     0.002252
      f-3     :     0.001573
  7 C s       :     3.107474  s :     3.107474
      pz      :     1.008120  p :     2.712714
      px      :     0.956961
      py      :     0.747633
      dz2     :     0.040759  d :     0.161947
      dxz     :     0.015591
      dyz     :     0.030849
      dx2y2   :     0.038342
      dxy     :     0.036407
      f0      :     0.001457  f :     0.010470
      f+1     :     0.000705
      f-1     :     0.001189
      f+2     :     0.001029
      f-2     :     0.001391
      f+3     :     0.002068
      f-3     :     0.002632
  8 N s       :     4.034499  s :     4.034499
      pz      :     1.367162  p :     3.654606
      px      :     1.270746
      py      :     1.016698
      dz2     :    -0.003106  d :    -0.031311
      dxz     :     0.000573
      dyz     :     0.009349
      dx2y2   :    -0.033003
      dxy     :    -0.005123
      f0      :     0.000479  f :     0.004721
      f+1     :     0.000167
      f-1     :     0.000656
      f+2     :     0.000577
      f-2     :     0.000597
      f+3     :     0.001088
      f-3     :     0.001158
  9 O s       :     3.803459  s :     3.803459
      pz      :     1.786597  p :     4.782756
      px      :     1.593316
      py      :     1.402843
      dz2     :     0.002060  d :     0.006105
      dxz     :     0.006925
      dyz     :     0.003894
      dx2y2   :     0.004307
      dxy     :    -0.011080
      f0      :     0.000160  f :     0.001495
      f+1     :     0.000144
      f-1     :     0.000197
      f+2     :     0.000102
      f-2     :     0.000176
      f+3     :     0.000431
      f-3     :     0.000285
 10 O s       :     3.778822  s :     3.778822
      pz      :     1.702894  p :     4.715988
      px      :     1.428726
      py      :     1.584367
      dz2     :     0.003511  d :    -0.009388
      dxz     :    -0.000437
      dyz     :     0.006040
      dx2y2   :    -0.000809
      dxy     :    -0.017693
      f0      :     0.000187  f :     0.001533
      f+1     :     0.000183
      f-1     :     0.000112
      f+2     :     0.000206
      f-2     :     0.000293
      f+3     :     0.000221
      f-3     :     0.000332
 11 H s       :     0.903438  s :     0.903438
      pz      :     0.019424  p :     0.037174
      px      :     0.006107
      py      :     0.011643
      dz2     :     0.000589  d :     0.001968
      dxz     :     0.000575
      dyz     :     0.000579
      dx2y2   :     0.000057
      dxy     :     0.000167
 12 H s       :     0.919385  s :     0.919385
      pz      :     0.010177  p :     0.035526
      px      :     0.006186
      py      :     0.019164
      dz2     :     0.000448  d :     0.001981
      dxz     :     0.000224
      dyz     :     0.000405
      dx2y2   :     0.000383
      dxy     :     0.000522
 13 H s       :     0.886545  s :     0.886545
      pz      :     0.003316  p :     0.044294
      px      :     0.015285
      py      :     0.025693
      dz2     :     0.000140  d :     0.002058
      dxz     :     0.000358
      dyz     :     0.000331
      dx2y2   :     0.000744
      dxy     :     0.000485
 14 H s       :     0.939316  s :     0.939316
      pz      :     0.007763  p :     0.034457
      px      :     0.018972
      py      :     0.007722
      dz2     :     0.000466  d :     0.001955
      dxz     :     0.000442
      dyz     :     0.000146
      dx2y2   :     0.000331
      dxy     :     0.000570
 15 H s       :     0.939618  s :     0.939618
      pz      :     0.020133  p :     0.041811
      px      :     0.014536
      py      :     0.007142
      dz2     :     0.000581  d :     0.001965
      dxz     :     0.000612
      dyz     :     0.000624
      dx2y2   :     0.000032
      dxy     :     0.000116
 16 H s       :     0.976293  s :     0.976293
      pz      :    -0.005267  p :     0.009782
      px      :     0.004794
      py      :     0.010256
      dz2     :     0.000223  d :     0.001965
      dxz     :     0.000238
      dyz     :     0.000343
      dx2y2   :     0.000710
      dxy     :     0.000452
 17 C s       :     2.898785  s :     2.898785
      pz      :     1.018180  p :     2.878451
      px      :     0.886483
      py      :     0.973788
      dz2     :    -0.002668  d :     0.039265
      dxz     :     0.021593
      dyz     :     0.008796
      dx2y2   :     0.006441
      dxy     :     0.005103
      f0      :     0.001137  f :     0.004242
      f+1     :     0.000872
      f-1     :     0.000718
      f+2     :     0.000295
      f-2     :     0.000737
      f+3     :     0.000414
      f-3     :     0.000069
 18 C s       :     2.776761  s :     2.776761
      pz      :     1.029894  p :     3.005915
      px      :     0.944646
      py      :     1.031375
      dz2     :     0.015130  d :     0.071451
      dxz     :     0.029948
      dyz     :    -0.000170
      dx2y2   :     0.006092
      dxy     :     0.020450
      f0      :     0.001180  f :     0.005351
      f+1     :     0.001290
      f-1     :     0.001144
      f+2     :     0.000339
      f-2     :     0.000829
      f+3     :     0.000377
      f-3     :     0.000192
 19 H s       :     0.886324  s :     0.886324
      pz      :     0.031140  p :     0.052936
      px      :     0.007446
      py      :     0.014351
      dz2     :     0.000483  d :     0.002115
      dxz     :     0.000246
      dyz     :     0.000632
      dx2y2   :     0.000339
      dxy     :     0.000416
 20 H s       :     0.905015  s :     0.905015
      pz      :     0.029309  p :     0.051816
      px      :     0.012569
      py      :     0.009938
      dz2     :     0.000675  d :     0.002036
      dxz     :     0.000369
      dyz     :     0.000407
      dx2y2   :     0.000296
      dxy     :     0.000290
 21 H s       :     0.817084  s :     0.817084
      pz      :     0.016935  p :     0.054664
      px      :     0.010548
      py      :     0.027181
      dz2     :     0.000306  d :     0.001950
      dxz     :     0.000196
      dyz     :     0.000526
      dx2y2   :     0.000436
      dxy     :     0.000487
 22 H s       :     0.887004  s :     0.887004
      pz      :     0.011658  p :     0.038694
      px      :     0.014814
      py      :     0.012222
      dz2     :     0.000615  d :     0.002041
      dxz     :     0.000416
      dyz     :     0.000302
      dx2y2   :     0.000359
      dxy     :     0.000350
 23 C s       :     3.185648  s :     3.185648
      pz      :     1.120145  p :     3.280691
      px      :     1.105217
      py      :     1.055330
      dz2     :     0.000654  d :     0.119854
      dxz     :     0.023970
      dyz     :     0.029848
      dx2y2   :     0.046108
      dxy     :     0.019274
      f0      :     0.000313  f :     0.004258
      f+1     :     0.000508
      f-1     :     0.000668
      f+2     :     0.000449
      f-2     :     0.001115
      f+3     :     0.000526
      f-3     :     0.000679
 24 H s       :     0.923341  s :     0.923341
      pz      :     0.026089  p :     0.044792
      px      :     0.009659
      py      :     0.009044
      dz2     :     0.000563  d :     0.001967
      dxz     :     0.000471
      dyz     :     0.000500
      dx2y2   :     0.000194
      dxy     :     0.000239
 25 H s       :     0.868204  s :     0.868204
      pz      :     0.014967  p :     0.041257
[...]
      f-1     :     0.000513
      f+2     :     0.000391
      f-2     :     0.000462
      f+3     :     0.000911
      f-3     :     0.001040
 10 O s       :     3.308606  s :     3.308606
      pz      :     1.569470  p :     4.594535
      px      :     1.477331
      py      :     1.547733
      dz2     :     0.079184  d :     0.484129
      dxz     :     0.085210
      dyz     :     0.062819
      dx2y2   :     0.127713
      dxy     :     0.129203
      f0      :     0.000338  f :     0.003896
      f+1     :     0.000617
      f-1     :     0.000230
      f+2     :     0.000541
      f-2     :     0.000642
      f+3     :     0.000764
      f-3     :     0.000764
 11 H s       :     0.721324  s :     0.721324
      pz      :     0.125626  p :     0.259353
      px      :     0.055558
      py      :     0.078169
      dz2     :     0.009561  d :     0.026513
      dxz     :     0.005974
      dyz     :     0.008206
      dx2y2   :     0.001032
      dxy     :     0.001741
 12 H s       :     0.720044  s :     0.720044
      pz      :     0.088531  p :     0.260439
      px      :     0.065587
      py      :     0.106320
      dz2     :     0.005339  d :     0.026672
      dxz     :     0.003623
      dyz     :     0.006410
      dx2y2   :     0.005603
      dxy     :     0.005698
 13 H s       :     0.696302  s :     0.696302
      pz      :     0.073283  p :     0.298310
      px      :     0.093508
      py      :     0.131520
      dz2     :     0.002566  d :     0.027274
      dxz     :     0.004195
      dyz     :     0.004744
      dx2y2   :     0.007400
      dxy     :     0.008369
 14 H s       :     0.719156  s :     0.719156
      pz      :     0.093299  p :     0.261294
      px      :     0.114217
      py      :     0.053778
      dz2     :     0.006094  d :     0.026701
      dxz     :     0.007510
      dyz     :     0.002042
      dx2y2   :     0.005457
      dxy     :     0.005598
 15 H s       :     0.719734  s :     0.719734
      pz      :     0.135394  p :     0.262991
      px      :     0.074120
      py      :     0.053477
      dz2     :     0.009721  d :     0.026513
      dxz     :     0.008838
      dyz     :     0.006630
      dx2y2   :     0.000472
      dxy     :     0.000852
 16 H s       :     0.712039  s :     0.712039
      pz      :     0.079242  p :     0.287282
      px      :     0.109173
      py      :     0.098867
      dz2     :     0.003290  d :     0.026685
      dxz     :     0.003469
      dyz     :     0.005164
      dx2y2   :     0.007316
      dxy     :     0.007446
 17 C s       :     2.807079  s :     2.807079
      pz      :     1.004831  p :     2.641813
      px      :     0.727690
      py      :     0.909291
      dz2     :     0.109667  d :     0.444284
      dxz     :     0.097666
      dyz     :     0.131493
      dx2y2   :     0.042686
      dxy     :     0.062773
      f0      :     0.007846  f :     0.020677
      f+1     :     0.003444
      f-1     :     0.003190
      f+2     :     0.001147
      f-2     :     0.003023
      f+3     :     0.001337
      f-3     :     0.000690
 18 C s       :     2.672043  s :     2.672043
      pz      :     0.955739  p :     2.577556
      px      :     0.769024
      py      :     0.852793
      dz2     :     0.144546  d :     0.641913
      dxz     :     0.184286
      dyz     :     0.167928
      dx2y2   :     0.060335
      dxy     :     0.084818
      f0      :     0.007388  f :     0.029452
      f+1     :     0.006528
      f-1     :     0.007072
      f+2     :     0.001761
      f-2     :     0.003933
      f+3     :     0.001359
      f-3     :     0.001410
 19 H s       :     0.737779  s :     0.737779
      pz      :     0.104376  p :     0.317697
      px      :     0.086368
      py      :     0.126953
      dz2     :     0.005021  d :     0.027982
      dxz     :     0.002856
      dyz     :     0.008489
      dx2y2   :     0.005234
      dxy     :     0.006381
 20 H s       :     0.746939  s :     0.746939
      pz      :     0.115662  p :     0.314747
      px      :     0.091168
      py      :     0.107917
      dz2     :     0.006976  d :     0.027801
      dxz     :     0.005279
      dyz     :     0.006449
      dx2y2   :     0.004156
      dxy     :     0.004942
 21 H s       :     0.697209  s :     0.697209
      pz      :     0.077234  p :     0.292557
      px      :     0.091778
      py      :     0.123545
      dz2     :     0.004136  d :     0.028217
      dxz     :     0.002129
      dyz     :     0.007542
      dx2y2   :     0.007088
      dxy     :     0.007323
 22 H s       :     0.699130  s :     0.699130
      pz      :     0.091124  p :     0.283925
      px      :     0.103779
      py      :     0.089022
      dz2     :     0.006758  d :     0.027728
      dxz     :     0.006663
      dyz     :     0.004456
      dx2y2   :     0.004514
      dxy     :     0.005338
 23 C s       :     2.639813  s :     2.639813
      pz      :     0.906046  p :     2.697345
      px      :     0.892215
      py      :     0.899084
      dz2     :     0.082917  d :     0.542929
      dxz     :     0.092530
      dyz     :     0.127452
      dx2y2   :     0.094235
      dxy     :     0.145794
      f0      :     0.003431  f :     0.031146
      f+1     :     0.004587
      f-1     :     0.004650
      f+2     :     0.003585
      f-2     :     0.005122
      f+3     :     0.004378
      f-3     :     0.005392
 24 H s       :     0.706866  s :     0.706866
      pz      :     0.111861  p :     0.280533
      px      :     0.080232
      py      :     0.088439
      dz2     :     0.008564  d :     0.028040
      dxz     :     0.006202
      dyz     :     0.007358
      dx2y2   :     0.002594
      dxy     :     0.003322
 25 H s       :     0.706450  s :     0.706450
      pz      :     0.077339  p :     0.273729
      px      :     0.107152
      py      :     0.089238
      dz2     :     0.003091  d :     0.027705
      dxz     :     0.006107
      dyz     :     0.003740
      dx2y2   :     0.007735
      dxy     :     0.007033
 26 H s       :     0.696719  s :     0.696719
      pz      :     0.103114  p :     0.293048
      px      :     0.082469
      py      :     0.107465
      dz2     :     0.006598  d :     0.028333
      dxz     :     0.004754
      dyz     :     0.006851
      dx2y2   :     0.004630
      dxy     :     0.005501
 27 H s       :     0.681396  s :     0.681396
      pz      :     0.088597  p :     0.301793
      px      :     0.103891
      py      :     0.109305
      dz2     :     0.006411  d :     0.030050
      dxz     :     0.004744
      dyz     :     0.007538
      dx2y2   :     0.005858
      dxy     :     0.005499


                      *****************************
                      * MAYER POPULATION ANALYSIS *
                      *****************************

  NA   - Mulliken gross atomic population
  ZA   - Total nuclear charge
  QA   - Mulliken gross atomic charge
  VA   - Mayer's total valence
  BVA  - Mayer's bonded valence
  FA   - Mayer's free valence

  ATOM       NA         ZA         QA         VA         BVA        FA
  0 Mo    13.1334    14.0000     0.8666     6.2869     6.2869    -0.0000
  1 C      5.6628     6.0000     0.3372     3.4310     3.4310    -0.0000
  2 C      6.2292     6.0000    -0.2292     3.7195     3.7195    -0.0000
  3 H      0.9150     1.0000     0.0850     1.0396     1.0396    -0.0000
  4 H      0.9191     1.0000     0.0809     1.0151     1.0151     0.0000
  5 H      0.8809     1.0000     0.1191     1.0057     1.0057    -0.0000
  6 C      6.1320     6.0000    -0.1320     3.9717     3.9717    -0.0000
  7 C      5.9926     6.0000     0.0074     3.9840     3.9840     0.0000
  8 N      7.6625     7.0000    -0.6625     1.9332     1.9332     0.0000
  9 O      8.5938     8.0000    -0.5938     1.5710     1.5710    -0.0000
 10 O      8.4870     8.0000    -0.4870     1.3866     1.3866    -0.0000
 11 H      0.9426     1.0000     0.0574     1.0518     1.0518    -0.0000
 12 H      0.9569     1.0000     0.0431     1.0431     1.0431    -0.0000
 13 H      0.9329     1.0000     0.0671     1.0614     1.0614    -0.0000
 14 H      0.9757     1.0000     0.0243     1.0463     1.0463     0.0000
 15 H      0.9834     1.0000     0.0166     1.0741     1.0741     0.0000
 16 H      0.9880     1.0000     0.0120     0.9885     0.9885     0.0000
 17 C      5.8207     6.0000     0.1793     3.7606     3.7606    -0.0000
 18 C      5.8595     6.0000     0.1405     3.6194     3.6194    -0.0000
 19 H      0.9414     1.0000     0.0586     1.0582     1.0582    -0.0000
 20 H      0.9589     1.0000     0.0411     1.0651     1.0651    -0.0000
 21 H      0.8737     1.0000     0.1263     1.0232     1.0232    -0.0000
 22 H      0.9277     1.0000     0.0723     0.9888     0.9888    -0.0000
 23 C      6.5905     6.0000    -0.5905     4.2039     4.2039     0.0000
 24 H      0.9701     1.0000     0.0299     1.0634     1.0634     0.0000
 25 H      0.9114     1.0000     0.0886     1.0232     1.0232     0.0000
 26 H      0.9497     1.0000     0.0503     1.0289     1.0289     0.0000
 27 H      0.8086     1.0000     0.1914     0.9003     0.9003    -0.0000

  Mayer bond orders larger than 0.100000
B(  0-Mo,  1-C ) :   0.6784 B(  0-Mo,  2-C ) :   0.1097 B(  0-Mo,  8-N ) :   1.4590 
B(  0-Mo,  9-O ) :   0.7525 B(  0-Mo, 10-O ) :   0.7805 B(  0-Mo, 17-C ) :   1.6209 
B(  0-Mo, 18-C ) :   0.3166 B(  0-Mo, 23-C ) :   0.1740 B(  1-C , 10-O ) :  -0.1368 
B(  1-C , 18-C ) :   1.2290 B(  1-C , 23-C ) :   0.9268 B(  1-C , 27-H ) :   0.9315 
B(  2-C ,  3-H ) :   1.0328 B(  2-C ,  4-H ) :   0.9953 B(  2-C ,  5-H ) :   1.0071 
B(  2-C ,  8-N ) :   0.5980 B(  6-C , 10-O ) :   0.8957 B(  6-C , 11-H ) :   1.0373 
B(  6-C , 12-H ) :   1.0461 B(  6-C , 13-H ) :   1.0014 B(  7-C ,  9-O ) :   0.9254 
B(  7-C , 14-H ) :   1.0482 B(  7-C , 15-H ) :   1.0278 B(  7-C , 16-H ) :   0.9900 
B( 17-C , 18-C ) :   0.1466 B( 17-C , 19-H ) :   1.0316 B( 17-C , 20-H ) :   1.0305 
B( 18-C , 21-H ) :   0.9556 B( 18-C , 22-H ) :   1.0150 B( 23-C , 24-H ) :   1.0278 
B( 23-C , 25-H ) :   1.0378 B( 23-C , 26-H ) :   1.0205 

-------
TIMINGS
-------

Total SCF time: 0 days 0 hours 0 min 52 sec 

Total time                  ....      52.934 sec
Sum of individual times     ....      52.130 sec  ( 98.5%)

Fock matrix formation       ....      44.990 sec  ( 85.0%)
  XC integration            ....       5.430 sec  ( 12.1% of F)
    Basis function eval.    ....       1.027 sec  ( 18.9% of XC)
    Density eval.           ....       1.753 sec  ( 32.3% of XC)
    XC-Functional eval.     ....       0.072 sec  (  1.3% of XC)
    XC-Potential eval.      ....       1.754 sec  ( 32.3% of XC)
Diagonalization             ....       2.428 sec  (  4.6%)
Density matrix formation    ....       0.104 sec  (  0.2%)
Population analysis         ....       0.106 sec  (  0.2%)
Initial guess               ....       2.275 sec  (  4.3%)
Orbital Transformation      ....       0.000 sec  (  0.0%)
Orbital Orthonormalization  ....       0.000 sec  (  0.0%)
DIIS solution               ....       1.377 sec  (  2.6%)
Grid generation             ....       0.851 sec  (  1.6%)


           ************************************************************
           *        Program running with 24 parallel MPI-processes    *
           *              working on a common directory               *
           ************************************************************

------------------------------------------------------------------------------
                                ORCA  MP2 
------------------------------------------------------------------------------

Freezing NCore=20 chemical core electrons

-------------
RI-MP2 ENERGY
-------------
Dimension of the basis                    ...  721
Memory devoted to MP2                     ... 5000 MB   
Data format for buffers                   ... DOUBLE
Compression type for matrix containers    ... UNCOMPRESSED
Scaling for aa/bb pairs                   ...   4.000e-01
Scaling for ab pairs                      ...   4.700e-01
Overall scaling of the MP2 energy         ...   1.000e+00
Calculating two index integrals           ... done (    0.027 sec)
Cholesky decomposition of V**-1           ... done (    0.298 sec)

-----------------
RI-TRANSFORMATION (AUX index driven)
-----------------

Dimension of the orbital-basis         ... 721
Dimension of the aux-basis             ... 1759
Transformation of internal/external MOs...   10-  47 to   48- 720
Number Format for Storage              ... Double (8 Byte)
Integral mode                          ... Direct

First Phase: integral generation and transformation of MO indices
  Aux angular momentum 0               ... done (    0.111 sec)
  Aux angular momentum 1               ... done (    0.235 sec)
  Aux angular momentum 2               ... done (    0.310 sec)
  Aux angular momentum 3               ... done (    0.236 sec)
  Aux angular momentum 4               ... done (    0.098 sec)
  Aux angular momentum 5               ... done (    0.123 sec)
  Aux angular momentum 6               ... done (    0.157 sec)
Closing buffer VIA ( 0.34 GB; CompressionRatio= 1.00)
  Phase 1 completed in     1.373 sec
Second Phase: sorting and transformation of aux index

IA-Transformation
Memory available                       ... 4935 MB 
Max. # MO pairs treated in a batch     ... 2    
# of internal orbitals                 ... 38
# batches for internal orbitals        ... 1
Closing buffer IAV ( 0.02 GB; CompressionRatio= 1.00)
(ia|v) transformation done in     0.256 sec

  Phase 2 completed in     0.616 sec
RI-Integral transformation completed in     2.001 sec
Opening buffers                              ... done

Starting loop over batches of integrals:

Operator 0  - window                       ... ( 10- 47)x( 48-720)
Operator 0  - Memory available             ...  5000 MB
Operator 0  - Memory needed per MO         ...   9.0 MB
Operator 0  - Number of orbitals per batch ... 2
Operator 0  - Number of batches            ... 1

OPERATOR  0   PASS   0:  MOs    10 ...   11 +   12 ...   13 +   14 ...   15 +   16 ...   17
                            +   18 ...   19 +   20 ...   21 +   22 ...   23 +   24 ...   25
                            +   26 ...   27 +   28 ...   29 +   30 ...   31 +   32 ...   33
                            +   34 ...   35 +   36 ...   37 +   38 ...   39 +   40 ...   41
                            +   42 ...   43 +   44 ...   45 +   46 ...   47
  Reading integrals       ... ok
Time spent in pair loops =     0.138 sec
Deleting buffer (Ka|jb)[aa] ...done

-----------------------------------------------
 RI-MP2 CORRELATION ENERGY:     -1.321766267 Eh
-----------------------------------------------


-------
TIMINGS
-------

Total time                :    4.881 sec
Integral trafo            :    2.014 sec ( 41.3%)
I/O of integrals          :    0.021 sec (  0.4%)
K(i,j) Operators          :    0.082 sec (  1.7%)
T(i,j) pair energies      :    0.018 sec (  0.4%)
V-calculation             :    0.027 sec (  0.6%)
V**(-1/2)                 :    0.298 sec (  6.1%)
Gamma(ia|P)               :    0.000 sec (  0.0%)
Gamma-Trafo               :    0.000 sec (  0.0%)
D(virtual)                :    0.000 sec (  0.0%)
D(internal)               :    0.000 sec (  0.0%)
W(virtual)                :    0.000 sec (  0.0%)
W(internal)               :    0.000 sec (  0.0%)
L(virtual)                :    0.000 sec (  0.0%)
L(internal)               :    0.000 sec (  0.0%)
G(D)                      :    0.000 sec (  0.0%)
G(Z)                      :    0.000 sec (  0.0%)
Z-Vector Solution         :    0.000 sec (  0.0%)
Z-Vector Solution         :    0.000 sec (  0.0%)
3-Index Derivative 
+ Separable RIJ part      :    0.000 sec (  0.0%)
2-Index Derivative 
+ Separable RIJ part      :    0.000 sec (  0.0%)
Separable Gradient (X)    :    0.000 sec (  0.0%)


---------------------------------------
MP2 TOTAL ENERGY:     -549.908408862 Eh
---------------------------------------


-------------------------------------------------------------------------------
                          DFT DISPERSION CORRECTION                            
                                                                               
                              DFTD3 V3.1  Rev 1                                
                          USING Becke-Johnson damping                          
-------------------------------------------------------------------------------
The DSD-BLYP/2013 functional is recognized
Active option DFTDOPT                   ...         4   

molecular C6(AA) [au] = 8613.388424 


            DFT-D V3
 parameters
 s6 scaling factor         :     0.5700 
 a1 scaling factor         :     0.0000 
 s8 scaling factor         :     0.0000 
 a2 scaling factor         :     5.4000 
 ad hoc parameters k1-k3   :    16.0000     1.3333    -4.0000 

 Edisp/kcal,au: -20.420892974674  -0.032542760931 
 E6   /kcal   : -20.420892975 
 E8   /kcal   :  -0.000000000 
 % E8         :   0.000000000 

-------------------------   ----------------
Dispersion correction           -0.032542761
-------------------------   ----------------


-------------------------   --------------------
FINAL SINGLE POINT ENERGY      -549.940951622624
-------------------------   --------------------


                            ***************************************
                            *     ORCA property calculations      *
                            ***************************************


  WARNING: The energy has been calculated at the MP2 level but the densities
           used in the property calculations are still SCF densities
           MP2 response densities have not been calculated 
           use %mp2 Density relaxed end
           or  %mp2 Density unrelaxed end

                                    ---------------------
                                    Active property flags
                                    ---------------------
   (+) Dipole Moment


------------------------------------------------------------------------------
                       ORCA ELECTRIC PROPERTIES CALCULATION
------------------------------------------------------------------------------

Dipole Moment Calculation                       ... on
Quadrupole Moment Calculation                   ... off
Polarizability Calculation                      ... off
GBWName                                         ... TMB09_T1.gbw
Electron density file                           ... TMB09_T1.scfp
The origin for moment calculation is the CENTER OF MASS  = ( 0.043409, -0.024360  0.032073)

-------------
DIPOLE MOMENT
-------------
                                X             Y             Z
Electronic contribution:     10.44218      -3.03683      13.44823
Nuclear contribution   :    -11.80214       3.30573     -13.02417
                        -----------------------------------------
Total Dipole Moment    :     -1.35996       0.26889       0.42406
                        -----------------------------------------
Magnitude (a.u.)       :      1.44969
Magnitude (Debye)      :      3.68483



--------------------
Rotational spectrum 
--------------------
 
Rotational constants in cm-1:     0.031577     0.026703     0.018834 
Rotational constants in MHz :   946.666634   800.534327   564.625423 

 Dipole components along the rotational axes: 
x,y,z [a.u.] :     1.353341     0.310222     0.416947 
x,y,z [Debye]:     3.439918     0.788523     1.059796 

 

Timings for individual modules:

Sum of individual times         ...       62.536 sec (=   1.042 min)
GTO integral calculation        ...        3.462 sec (=   0.058 min)   5.5 %
SCF iterations                  ...       53.608 sec (=   0.893 min)  85.7 %
MP2 module                      ...        5.465 sec (=   0.091 min)   8.7 %
                             ****ORCA TERMINATED NORMALLY****
TOTAL RUN TIME: 0 days 0 hours 1 minutes 3 seconds 145 msec
