
                                 *****************
                                 * O   R   C   A *
                                 *****************

           --- An Ab Initio, DFT and Semiempirical electronic structure package ---

                  #######################################################
                  #                        -***-                        #
                  #          Department of theory and spectroscopy      #
                  #               Directorship: Frank Neese             #
                  #        Max Planck Institute fuer Kohlenforschung    #
                  #                Kaiser Wilhelm Platz 1               #
                  #                 D-45470 Muelheim/Ruhr               #
                  #                      Germany                        #
                  #                                                     #
                  #                  All rights reserved                #
                  #                        -***-                        #
                  #######################################################


                         Program Version 4.2.0 -  RELEASE  -


 With contributions from (in alphabetic order):
   Daniel Aravena         : Magnetic Suceptibility
   Michael Atanasov       : Ab Initio Ligand Field Theory (pilot matlab implementation)
   Alexander A. Auer      : GIAO ZORA, VPT2
   Ute Becker             : Parallelization
   Giovanni Bistoni       : ED, misc. LED, open-shell LED, HFLED
   Martin Brehm           : Molecular dynamics
   Dmytro Bykov           : SCF Hessian
   Vijay G. Chilkuri      : MRCI spin determinant printing, contributions to CSF-ICE
   Dipayan Datta          : RHF DLPNO-CCSD density
   Achintya Kumar Dutta   : EOM-CC, STEOM-CC
   Dmitry Ganyushin       : Spin-Orbit,Spin-Spin,Magnetic field MRCI
   Miquel Garcia          : C-PCM Hessian, Gaussian charge scheme
   Yang Guo               : DLPNO-NEVPT2, CIM, IAO-localization
   Andreas Hansen         : Spin unrestricted coupled pair/coupled cluster methods
   Benjamin Helmich-Paris : CASSCF linear response (MC-RPA)
   Lee Huntington         : MR-EOM, pCC
   Robert Izsak           : Overlap fitted RIJCOSX, COSX-SCS-MP3, EOM
   Christian Kollmar      : KDIIS, OOCD, Brueckner-CCSD(T), CCSD density
   Simone Kossmann        : Meta GGA functionals, TD-DFT gradient, OOMP2, MP2 Hessian
   Martin Krupicka        : AUTO-CI
   Lucas Lang             : DCDCAS
   Dagmar Lenk            : GEPOL surface, SMD
   Dimitrios Liakos       : Extrapolation schemes; Compound Job, initial MDCI parallelization
   Dimitrios Manganas     : Further ROCIS development; embedding schemes
   Dimitrios Pantazis     : SARC Basis sets
   Taras Petrenko         : DFT Hessian,TD-DFT gradient, ASA, ECA, R-Raman, ABS, FL, XAS/XES, NRVS
   Peter Pinski           : DLPNO-MP2, DLPNO-MP2 Gradient
   Christoph Reimann      : Effective Core Potentials
   Marius Retegan         : Local ZFS, SOC
   Christoph Riplinger    : Optimizer, TS searches, QM/MM, DLPNO-CCSD(T), (RO)-DLPNO pert. Triples
   Tobias Risthaus        : Range-separated hybrids, TD-DFT gradient, RPA, STAB
   Michael Roemelt        : Original ROCIS implementation
   Masaaki Saitow         : Open-shell DLPNO-CCSD energy and density
   Barbara Sandhoefer     : DKH picture change effects
   Avijit Sen             : IP-ROCIS
   Kantharuban Sivalingam : CASSCF convergence, NEVPT2, FIC-MRCI
   Bernardo de Souza      : ESD, SOC TD-DFT
   Georgi Stoychev        : AutoAux, RI-MP2 NMR
   Willem Van den Heuvel  : Paramagnetic NMR
   Boris Wezisla          : Elementary symmetry handling
   Frank Wennmohs         : Technical directorship


 We gratefully acknowledge several colleagues who have allowed us to
 interface, adapt or use parts of their codes:
   Stefan Grimme, W. Hujo, H. Kruse,             : VdW corrections, initial TS optimization,
                  C. Bannwarth                     DFT functionals, gCP, sTDA/sTD-DF
   Ed Valeev, F. Pavosevic, A. Kumar             : LibInt (2-el integral package), F12 methods
   Garnet Chan, S. Sharma, J. Yang, R. Olivares  : DMRG
   Ulf Ekstrom                                   : XCFun DFT Library
   Mihaly Kallay                                 : mrcc  (arbitrary order and MRCC methods)
   Andreas Klamt, Michael Diedenhofen            : otool_cosmo (COSMO solvation model)
   Jiri Pittner, Ondrej Demel                    : Mk-CCSD
   Frank Weinhold                                : gennbo (NPA and NBO analysis)
   Christopher J. Cramer and Donald G. Truhlar   : smd solvation model
   Lars Goerigk                                  : TD-DFT with DH, B97 family of functionals
   V. Asgeirsson, H. Jonsson                     : NEB implementation
   FAccTs GmbH                                   : IRC, NEB, NEB-TS, Multilevel, MM, QM/MM, CI optimization
   S Lehtola, MJT Oliveira, MAL Marques          : LibXC Library


 Your calculation uses the libint2 library for the computation of 2-el integrals
 For citations please refer to: http://libint.valeyev.net

 Your ORCA version has been built with support for libXC version: 4.2.3
 For citations please refer to: https://tddft.org/programs/libxc/

 This ORCA versions uses:
   CBLAS   interface :  Fast vector & matrix operations
   LAPACKE interface :  Fast linear algebra routines
   SCALAPACK package :  Parallel linear algebra routines


Your calculation utilizes the atom-pairwise dispersion correction
with the Becke-Johnson damping scheme (D3BJ)
Cite in your paper:
S.Grimme, S.Ehrlich, L.Goerigk, J Comput Chem, (2011), 32, 1456–1465 
S.Grimme, J.Antony, S.Ehrlich and H.Krieg, J.Chem.Phys., 132, (2010), 154104 
   

----- Orbital basis set information -----
Your calculation utilizes the basis: def2-TZVPPD
   F. Weigend and R. Ahlrichs, Phys. Chem. Chem. Phys. 7, 3297 (2005).
   D. Rappoport and F. Furche, J. Chem. Phys. 133 134105 (2010).

----- AuxC basis set information -----
Your calculation utilizes the auxiliary basis: def2-TZVPPD/C
   A. Hellweg, C. Hattig, S. Hofener and W. Klopper, Theor. Chem. Acc. 117, 587 (2007).

----- AuxJK basis set information -----
Your calculation utilizes the auxiliary basis: def2/JK
   H-Ba, Hf-Rn: F. Weigend, J. Comput. Chem. 29, 167 (2008).

cite the ECPs for Zr [Def2-ECP] as follows:
Ce-Yb(ecp-28): M. Dolg, H. Stoll, H.Preuss, J. Chem. Phys., 1989, 90, 1730-1734.
Y-Cd(ecp-28), Hf-Hg(ecp-46): D. Andrae,U. Haeussermann, M. Dolg, H. Stoll, H. Preuss, Theor. Chim. Acta, 1990, 77, 123-141.
In-Sb(ecp-28), Tl-Bi(ecp-46): B. Metz, H. Stoll, M. Dolg, J. Chem. Phys., 2000, 113, 2563-2569.
Te-Xe(ecp-28), Po-Rn(ecp-46): K. A. Peterson, D. Figgen, E. Goll, H. Stoll, M. Dolg, J. Chem. Phys., 2003, 119, 11113-11123.
Rb(ecp-28), Cs(ecp-46): T. Leininger, A. Nicklass, W. Kuechle, H. Stoll, M. Dolg, A. Bergner, Chem. Phys. Lett., 1996, 255, 274-280.
Sr(ecp-28), Ba(ecp-46): M. Kaupp, P. V. Schleyer, H. Stoll and H. Preuss, J. Chem. Phys., 1991, 94, 1360-1366.
La(ecp-46): M. Dolg, H. Stoll, A. Savin, H. Preuss, Theor. Chim. Acta, 1989, 75, 173-194.
Lu(ecp-28): X. Cao, M. Dolg, J. Chem. Phys., 2001, 115, 7348-7355.

ECP parameters for Zr [Def2-ECP] have been obtained from:
TURBOMOLE (7.0.2)

================================================================================
                                        WARNINGS
                       Please study these warnings very carefully!
================================================================================


WARNING: No MP2 level density has been requested!
         To caclulate MP2 level properties use
         %mp2 Density relaxed end
         or
         %mp2 Density unrelaxed end
         Otherwise for double-hybrid DFT only the energy is correct!

WARNING: There are different parametrizations of Gershom Martin's DSD-DFs
         for use with and without D3(BJ)!
         You are using the D3(BJ) parametrized version,
         consistent with the 2013 article (S. Kozuch and J. M. L. Martin, JCC 2013, 34, 2327)

WARNING: The frozen-core approximation is turned on by default for 
         the MP2 part of double-hybrid DFT.

INFO   : the flag for use of LIBINT has been found!

================================================================================
                                       INPUT FILE
================================================================================
NAME = TMB01_T1.in
|  1> #
|  2> # TMB01_T1 ri-DSD-BLYP/2013-D3BJ/Def2-TZVPPD
|  3> #
|  4> ! rijk ri-dsd-blyp/2013 d3bj def2-tzvppd def2/jk def2-tzvppd/c grid4 nofinalgrid
|  5> 
|  6> *xyz 0 1
|  7> Zr       0.019829   -0.026802    0.120636 
|  8> C        2.239874   -0.374444    1.245397 
|  9> C        1.976783   -1.521588    0.474285 
| 10> C        2.416443    0.711808    0.354001 
| 11> H        1.819060   -2.516470    0.858019 
| 12> C        2.001810   -1.148643   -0.895658 
| 13> H        2.608112    1.737773    0.630719 
| 14> C        2.298913    0.223349   -0.961356 
| 15> H        1.861573   -1.806504   -1.739184 
| 16> H        2.356666    0.814844   -1.859655 
| 17> C       -1.057190   -2.235373    0.523484 
| 18> C       -1.856346   -1.294393    1.201077 
| 19> C       -1.167009   -1.987955   -0.868757 
| 20> H       -2.005770   -1.236737    2.266001 
| 21> C       -2.451652   -0.457501    0.227470 
| 22> H       -0.689853   -2.550694   -1.656100 
| 23> C       -2.043033   -0.903228   -1.046149 
| 24> H       -3.108339    0.375352    0.426641 
| 25> H       -2.305042   -0.449162   -1.987488 
| 26> Cl      -0.345437    1.661478   -1.736503 
| 27> C       -1.133945    2.698822    1.012771 
| 28> C       -0.495222    2.377308    1.980322 
| 29> H       -1.676629    3.004729    0.150271 
| 30> H       -0.029188    0.104247    1.943645 
| 31> H        0.041631    2.180985    2.876056 
| 32> H        2.316195   -0.336400    2.319120 
| 33> H       -0.485725   -3.023975    0.985751 
| 34> *
| 35> 
| 36> %maxcore 5000
| 37> 
| 38> %pal
| 39> nprocs = 24
| 40> end
| 41> 
| 42> 
| 43>                          ****END OF INPUT****
================================================================================

                       ****************************
                       * Single Point Calculation *
                       ****************************

---------------------------------
CARTESIAN COORDINATES (ANGSTROEM)
---------------------------------
  Zr     0.019829   -0.026802    0.120636
  C      2.239874   -0.374444    1.245397
  C      1.976783   -1.521588    0.474285
  C      2.416443    0.711808    0.354001
  H      1.819060   -2.516470    0.858019
  C      2.001810   -1.148643   -0.895658
  H      2.608112    1.737773    0.630719
  C      2.298913    0.223349   -0.961356
  H      1.861573   -1.806504   -1.739184
  H      2.356666    0.814844   -1.859655
  C     -1.057190   -2.235373    0.523484
  C     -1.856346   -1.294393    1.201077
  C     -1.167009   -1.987955   -0.868757
  H     -2.005770   -1.236737    2.266001
  C     -2.451652   -0.457501    0.227470
  H     -0.689853   -2.550694   -1.656100
  C     -2.043033   -0.903228   -1.046149
  H     -3.108339    0.375352    0.426641
  H     -2.305042   -0.449162   -1.987488
  Cl    -0.345437    1.661478   -1.736503
  C     -1.133945    2.698822    1.012771
  C     -0.495222    2.377308    1.980322
  H     -1.676629    3.004729    0.150271
  H     -0.029188    0.104247    1.943645
  H      0.041631    2.180985    2.876056
  H      2.316195   -0.336400    2.319120
  H     -0.485725   -3.023975    0.985751

----------------------------
CARTESIAN COORDINATES (A.U.)
----------------------------
  NO LB      ZA    FRAG     MASS         X           Y           Z
   0 Zr   12.0000*   0    91.220    0.037471   -0.050648    0.227969
   1 C     6.0000    0    12.011    4.232748   -0.707597    2.353459
   2 C     6.0000    0    12.011    3.735578   -2.875385    0.896269
   3 C     6.0000    0    12.011    4.566415    1.345122    0.668965
   4 H     1.0000    0     1.008    3.437525   -4.755439    1.621421
   5 C     6.0000    0    12.011    3.782873   -2.170621   -1.692548
   6 H     1.0000    0     1.008    4.928617    3.283915    1.191886
   7 C     6.0000    0    12.011    4.344316    0.422068   -1.816700
   8 H     1.0000    0     1.008    3.517863   -3.413798   -3.286581
   9 H     1.0000    0     1.008    4.453453    1.539832   -3.514239
  10 C     6.0000    0    12.011   -1.997800   -4.224243    0.989241
  11 C     6.0000    0    12.011   -3.507986   -2.446048    2.269707
  12 C     6.0000    0    12.011   -2.205327   -3.756691   -1.641713
  13 H     1.0000    0     1.008   -3.790356   -2.337094    4.282121
  14 C     6.0000    0    12.011   -4.632951   -0.864552    0.429856
  15 H     1.0000    0     1.008   -1.303633   -4.820113   -3.129575
  16 C     6.0000    0    12.011   -3.860773   -1.706854   -1.976935
  17 H     1.0000    0     1.008   -5.873909    0.709312    0.806235
  18 H     1.0000    0     1.008   -4.355898   -0.848793   -3.755808
  19 Cl   17.0000    0    35.453   -0.652781    3.139738   -3.281515
  20 C     6.0000    0    12.011   -2.142846    5.100034    1.913860
  21 C     6.0000    0    12.011   -0.935834    4.492461    3.742266
  22 H     1.0000    0     1.008   -3.168370    5.678115    0.283971
  23 H     1.0000    0     1.008   -0.055157    0.196998    3.672957
  24 H     1.0000    0     1.008    0.078671    4.121464    5.434958
  25 H     1.0000    0     1.008    4.376974   -0.635704    4.382502
  26 H     1.0000    0     1.008   -0.917887   -5.714485    1.862799
* core charge reduced due to ECP

--------------------------------
INTERNAL COORDINATES (ANGSTROEM)
--------------------------------
 Zr     0   0   0     0.000000000000     0.00000000     0.00000000
 C      1   0   0     2.512875259401     0.00000000     0.00000000
 C      2   1   0     1.407042979998    72.68031406     0.00000000
 C      2   1   3     1.416229800591    73.87765652   114.91571753
 H      3   2   1     1.077923244674   125.78464896   244.62833864
 C      3   2   1     1.420020474149   108.13719368    66.62737094
 H      4   2   1     1.079774994297   126.12918862   113.05062749
 C      6   3   2     1.405328597829   107.77200450     0.81029657
 H      6   3   2     1.078880727498   126.28808870   178.34688657
 H      8   6   3     1.077099270000   125.90571372   182.21056556
 C      1   2   3     2.489988413528   100.77837645    45.29771273
 C     11   1   2     1.408270551558    74.37353707   116.95224339
 C     11   1   2     1.418312688220    73.73672681   231.71533529
 H     12  11   1     1.076900585889   126.17930871   244.75507830
 C     12  11   1     1.415163610241   107.62801305    66.06774805
 H     13  11   1     1.079009745139   126.23209166   114.31040517
 C     13  11   1     1.405531442113   107.86518666   292.48595059
 H     15  12  11     1.079143652541   125.83223214   181.08937309
 H     17  13  11     1.077471002560   125.94840995   177.61507022
 Cl     1   2   3     2.536271648400   123.16625043   249.69254847
 C     20   1   2     3.042422549134    66.58474268   263.34141593
 C     21  20   1     1.203118140719   119.86827267    35.81366664
 H     21  20   1     1.063950781994    59.84631683   213.87087256
 H      1   2   3     1.828370400321    65.62633322   123.26690636
 H     22  21  20     1.062588002329   174.57341787   151.45188446
 H      2   1   3     1.077104136890   120.25890068   237.88688808
 H     11   1   2     1.078033459554   119.27022567   354.43539919

---------------------------
INTERNAL COORDINATES (A.U.)
---------------------------
 Zr     0   0   0     0.000000000000     0.00000000     0.00000000
 C      1   0   0     4.748646048974     0.00000000     0.00000000
 C      2   1   0     2.658925890852    72.68031406     0.00000000
 C      2   1   3     2.676286465814    73.87765652   114.91571753
 H      3   2   1     2.036979725822   125.78464896   244.62833864
 C      3   2   1     2.683449800703   108.13719368    66.62737094
 H      4   2   1     2.040479025479   126.12918862   113.05062749
 C      6   3   2     2.655686178065   107.77200450     0.81029657
 H      6   3   2     2.038789106136   126.28808870   178.34688657
 H      8   6   3     2.035422639347   125.90571372   182.21056556
 C      1   2   3     4.705396178206   100.77837645    45.29771273
 C     11   1   2     2.661245664911    74.37353707   116.95224339
 C     11   1   2     2.680222553002    73.73672681   231.71533529
 H     12  11   1     2.035047180789   126.17930871   244.75507830
 C     12  11   1     2.674271658046   107.62801305    66.06774805
 H     13  11   1     2.039032914146   126.23209166   114.31040517
 C     13  11   1     2.656069498209   107.86518666   292.48595059
 H     15  12  11     2.039285962461   125.83223214   181.08937309
 H     17  13  11     2.036125112080   125.94840995   177.61507022
 Cl     1   2   3     4.792858816705   123.16625043   249.69254847
 C     20   1   2     5.749345401529    66.58474268   263.34141593
 C     21  20   1     2.273563792711   119.86827267    35.81366664
 H     21  20   1     2.010575597939    59.84631683   213.87087256
 H      1   2   3     3.455119327975    65.62633322   123.26690636
 H     22  21  20     2.008000317593   174.57341787   151.45188446
 H      2   1   3     2.035431836436   120.25890068   237.88688808
 H     11   1   2     2.037188001761   119.27022567   354.43539919

---------------------
BASIS SET INFORMATION
---------------------
There are 4 groups of distinct atoms

 Group   1 Type Zr  : 7s7p5d2f1g contracted to 6s4p3d2f1g pattern {211111/4111/311/11/1}
 Group   2 Type C   : 12s6p3d1f contracted to 6s3p3d1f pattern {621111/411/111/1}
 Group   3 Type H   : 5s3p1d contracted to 3s3p1d pattern {311/111/1}
 Group   4 Type Cl  : 15s10p4d1f contracted to 6s6p4d1f pattern {732111/511111/1111/1}

Atom   0Zr   basis set group =>   1
Atom   1C    basis set group =>   2
Atom   2C    basis set group =>   2
Atom   3C    basis set group =>   2
Atom   4H    basis set group =>   3
Atom   5C    basis set group =>   2
Atom   6H    basis set group =>   3
Atom   7C    basis set group =>   2
Atom   8H    basis set group =>   3
Atom   9H    basis set group =>   3
Atom  10C    basis set group =>   2
Atom  11C    basis set group =>   2
Atom  12C    basis set group =>   2
Atom  13H    basis set group =>   3
Atom  14C    basis set group =>   2
Atom  15H    basis set group =>   3
Atom  16C    basis set group =>   2
Atom  17H    basis set group =>   3
Atom  18H    basis set group =>   3
Atom  19Cl   basis set group =>   4
Atom  20C    basis set group =>   2
Atom  21C    basis set group =>   2
Atom  22H    basis set group =>   3
Atom  23H    basis set group =>   3
Atom  24H    basis set group =>   3
Atom  25H    basis set group =>   3
Atom  26H    basis set group =>   3
---------------------------------
AUXILIARY/C BASIS SET INFORMATION
---------------------------------
There are 4 groups of distinct atoms

 Group   1 Type Zr  : 8s7p6d5f4g3h1i contracted to 8s7p6d5f4g3h1i pattern {11111111/1111111/111111/11111/1111/111/1}
 Group   2 Type C   : 9s7p6d4f1g contracted to 9s7p5d4f1g pattern {111111111/1111111/21111/1111/1}
 Group   3 Type H   : 5s4p3d1f contracted to 5s4p3d1f pattern {11111/1111/111/1}
 Group   4 Type Cl  : 12s9p8d6f2g contracted to 12s9p8d6f2g pattern {111111111111/111111111/11111111/111111/11}

Atom   0Zr   basis set group =>   1
Atom   1C    basis set group =>   2
Atom   2C    basis set group =>   2
Atom   3C    basis set group =>   2
Atom   4H    basis set group =>   3
Atom   5C    basis set group =>   2
Atom   6H    basis set group =>   3
Atom   7C    basis set group =>   2
Atom   8H    basis set group =>   3
Atom   9H    basis set group =>   3
Atom  10C    basis set group =>   2
Atom  11C    basis set group =>   2
Atom  12C    basis set group =>   2
Atom  13H    basis set group =>   3
Atom  14C    basis set group =>   2
Atom  15H    basis set group =>   3
Atom  16C    basis set group =>   2
Atom  17H    basis set group =>   3
Atom  18H    basis set group =>   3
Atom  19Cl   basis set group =>   4
Atom  20C    basis set group =>   2
Atom  21C    basis set group =>   2
Atom  22H    basis set group =>   3
Atom  23H    basis set group =>   3
Atom  24H    basis set group =>   3
Atom  25H    basis set group =>   3
Atom  26H    basis set group =>   3
----------------------------------
AUXILIARY/JK BASIS SET INFORMATION
----------------------------------
There are 4 groups of distinct atoms

 Group   1 Type Zr  : 13s12p10d9f6g3h2i contracted to 11s10p9d8f6g3h2i pattern {31111111111/3111111111/211111111/21111111/111111/111/11}
 Group   2 Type C   : 14s10p6d2f1g contracted to 10s8p5d1f1g pattern {5111111111/31111111/21111/2/1}
 Group   3 Type H   : 4s2p2d contracted to 2s2p2d pattern {31/11/11}
 Group   4 Type Cl  : 16s12p10d4f1g contracted to 13s11p9d4f1g pattern {4111111111111/21111111111/211111111/1111/1}

Atom   0Zr   basis set group =>   1
Atom   1C    basis set group =>   2
Atom   2C    basis set group =>   2
Atom   3C    basis set group =>   2
Atom   4H    basis set group =>   3
Atom   5C    basis set group =>   2
Atom   6H    basis set group =>   3
Atom   7C    basis set group =>   2
Atom   8H    basis set group =>   3
Atom   9H    basis set group =>   3
Atom  10C    basis set group =>   2
Atom  11C    basis set group =>   2
Atom  12C    basis set group =>   2
Atom  13H    basis set group =>   3
Atom  14C    basis set group =>   2
Atom  15H    basis set group =>   3
Atom  16C    basis set group =>   2
Atom  17H    basis set group =>   3
Atom  18H    basis set group =>   3
Atom  19Cl   basis set group =>   4
Atom  20C    basis set group =>   2
Atom  21C    basis set group =>   2
Atom  22H    basis set group =>   3
Atom  23H    basis set group =>   3
Atom  24H    basis set group =>   3
Atom  25H    basis set group =>   3
Atom  26H    basis set group =>   3
-------------------------
ECP PARAMETER INFORMATION
-------------------------

 Group 1, Type Zr ECP Def2-ECP (replacing 28 core electrons, lmax=3)

Atom   0Zr   ECP group =>   1



           ************************************************************
           *        Program running with 24 parallel MPI-processes    *
           *              working on a common directory               *
           ************************************************************
------------------------------------------------------------------------------
                           ORCA GTO INTEGRAL CALCULATION
                           -- RI-GTO INTEGRALS CHOSEN --
------------------------------------------------------------------------------

                         BASIS SET STATISTICS AND STARTUP INFO

Gaussian basis set:
 # of primitive gaussian shells          ...  433
 # of primitive gaussian functions       ... 1019
 # of contracted shells                  ...  280
 # of contracted basis functions         ...  772
 Highest angular momentum                ...    4
 Maximum contraction depth               ...    7
Auxiliary gaussian basis set:
 # of primitive gaussian shells          ...  598
 # of primitive gaussian functions       ... 1838
 # of contracted shells                  ...  465
 # of contracted aux-basis functions     ... 1517
 Highest angular momentum                ...    6
 Maximum contraction depth               ...    5
Ratio of auxiliary to basis functions    ...  1.97
Integral package used                  ... LIBINT
 One Electron integrals                  
   ECP integrals                         ... done
 Ordering auxiliary basis shells         ... done
 Integral threshhold             Thresh  ...  1.000e-10
 Primitive cut-off               TCut    ...  1.000e-11
 Pre-screening matrix                    ... done
 Shell pair data                         ... 
 Ordering of the shell pairs             ... done (   0.006 sec) 34989 of 39340 pairs
 Determination of significant pairs      ... done (   0.000 sec)
 Creation of shell pair data             ... done (   0.003 sec)
 Storage of shell pair data              ... done (   0.014 sec)
 Shell pair data done in (   0.023 sec)
 Computing two index integrals           ... done
 Cholesky decomposition of the V-matrix  ... done


Timings:
 Total evaluation time                   ...   3.343 sec (  0.056 min)
 One electron matrix time                ...   2.727 sec (  0.045 min) = 81.6%
 Schwartz matrix evaluation time         ...   0.353 sec (  0.006 min) = 10.6%
 Two index repulsion integral time       ...   0.113 sec (  0.002 min) =  3.4%
 Cholesky decomposition of V             ...   0.098 sec (  0.002 min) =  2.9%
 Three index repulsion integral time     ...   0.000 sec (  0.000 min) =  0.0%



           ************************************************************
           *        Program running with 24 parallel MPI-processes    *
           *              working on a common directory               *
           ************************************************************
-------------------------------------------------------------------------------
                                 ORCA SCF
-------------------------------------------------------------------------------

------------
SCF SETTINGS
------------
Hamiltonian:
 Density Functional     Method          .... DFT(GTOs)
 Exchange Functional    Exchange        .... B88
   X-Alpha parameter    XAlpha          ....  0.666667
   Becke's b parameter  XBeta           ....  0.004200
 Correlation Functional Correlation     .... LYP
 LDA part of GGA corr.  LDAOpt          .... VWN-5
 Gradients option       PostSCFGGA      .... off
 Hybrid DFT is turned on
   Fraction HF Exchange ScalHFX         ....  0.710000
   Scaling of DF-GGA-X  ScalDFX         ....  0.290000
   Scaling of DF-GGA-C  ScalDFC         ....  0.540000
   Scaling of DF-LDA-C  ScalLDAC        ....  0.540000
   Perturbative correction              ....  1.000000
   Density functional embedding theory  .... OFF
 RI-approximation to the Coulomb term is turned on
   Number of auxiliary basis functions  .... 1517
   RI-JK (J+K treated both via RI)      .... on


General Settings:
 Integral files         IntName         .... TMB01_T1
 Hartree-Fock type      HFTyp           .... RHF
 Total Charge           Charge          ....    0
 Multiplicity           Mult            ....    1
 Number of Electrons    NEL             ....  114
 Basis Dimension        Dim             ....  772
 Nuclear Repulsion      ENuc            ....   1051.2717291813 Eh

Convergence Acceleration:
 DIIS                   CNVDIIS         .... on
   Start iteration      DIISMaxIt       ....    12
   Startup error        DIISStart       ....  0.200000
   # of expansion vecs  DIISMaxEq       ....     5
   Bias factor          DIISBfac        ....   1.050
   Max. coefficient     DIISMaxC        ....  10.000
 Newton-Raphson         CNVNR           .... off
 SOSCF                  CNVSOSCF        .... off
 Level Shifting         CNVShift        .... on
   Level shift para.    LevelShift      ....    0.2500
   Turn off err/grad.   ShiftErr        ....    0.0010
 Zerner damping         CNVZerner       .... off
 Static damping         CNVDamp         .... on
   Fraction old density DampFac         ....    0.7000
   Max. Damping (<1)    DampMax         ....    0.9800
   Min. Damping (>=0)   DampMin         ....    0.0000
   Turn off err/grad.   DampErr         ....    0.1000
 Fernandez-Rico         CNVRico         .... off

SCF Procedure:
 Maximum # iterations   MaxIter         ....   125
 SCF integral mode      SCFMode         .... Direct
   Integral package                     .... LIBINT
 Reset frequency        DirectResetFreq ....    20
 Integral Threshold     Thresh          ....  1.000e-10 Eh
 Primitive CutOff       TCut            ....  1.000e-11 Eh

Convergence Tolerance:
 Convergence Check Mode ConvCheckMode   .... Total+1el-Energy
 Convergence forced     ConvForced      .... 0
 Energy Change          TolE            ....  1.000e-06 Eh
 1-El. energy change                    ....  1.000e-03 Eh
 DIIS Error             TolErr          ....  1.000e-06


Diagonalization of the overlap matrix:
Smallest eigenvalue                        ... 3.883e-07
Time for diagonalization                   ...    0.091 sec
Threshold for overlap eigenvalues          ... 1.000e-08
Number of eigenvalues below threshold      ... 0
Time for construction of square roots      ...    0.070 sec
Total time needed                          ...    0.163 sec

-------------------
DFT GRID GENERATION
-------------------

General Integration Accuracy     IntAcc      ...  4.670
Radial Grid Type                 RadialGrid  ... Gauss-Chebyshev
Angular Grid (max. acc.)         AngularGrid ... Lebedev-302
Angular grid pruning method      GridPruning ... 3 (G Style)
Weight generation scheme         WeightScheme... Becke
Basis function cutoff            BFCut       ...    1.0000e-10
Integration weight cutoff        WCut        ...    1.0000e-14
Grids for H and He will be reduced by one unit

# of grid points (after initial pruning)     ... 136086 (   0.0 sec)
# of grid points (after weights+screening)   ... 118837 (   0.1 sec)
nearest neighbour list constructed           ...    0.0 sec
Grid point re-assignment to atoms done       ...    0.0 sec
Grid point division into batches done        ...    0.4 sec
Reduced shell lists constructed in    0.8 sec

Total number of grid points                  ...   118837
Total number of batches                      ...     1870
Average number of points per batch           ...       63
Average number of grid points per atom       ...     4401
Average number of shells per batch           ...   212.41 (75.86%)
Average number of basis functions per batch  ...   614.05 (79.54%)
Average number of large shells per batch     ...   171.51 (80.74%)
Average number of large basis fcns per batch ...   482.87 (78.64%)
Average number of aux-shells per batch       ...   212.41 (45.68%)
Average number of aux functions per batch    ...   614.05 (40.48%)
Maximum spatial batch extension              ...   1.82,  2.00,  1.97 au
Average spatial batch extension              ...   0.05,  0.05,  0.05 au

Time for grid setup =    0.985 sec

------------------------------
INITIAL GUESS: MODEL POTENTIAL
------------------------------
Loading Hartree-Fock densities                     ... done
  calling /sw/apps/orca/orca_4_2_0_linux_x86-64_openmpi314/orca TMB01_T1_atom40.inp > TMB01_T1_atom40.out in order to generate an atomic fitting density for atom 0 (Zr with ECP) on-the-fly... 
    atom 0 (Zr), assumed electronic state with S=3: 1s2 2s2 2p6 3s2 3p6 4s2 3d10 4p6 4d2 5s2           ... done
Calculating cut-offs                               ... done
Setting up the integral package                    ... done
Initializing the effective Hamiltonian             ... done
Starting the Coulomb interaction                   ... done (   0.1 sec)
Reading the grid                                   ... done
Mapping shells                                     ... done
Starting the XC term evaluation                    ... done (   0.4 sec)
  promolecular density results
     # of electrons  =    141.994799388
     EX              =   -203.837641210
     EC              =     -0.723620272
     EX+EC           =   -204.561261482
Transforming the Hamiltonian                       ... done (   0.0 sec)
Diagonalizing the Hamiltonian                      ... done (   0.1 sec)
Back transforming the eigenvectors                 ... done (   0.0 sec)
Now organizing SCF variables                       ... done
                      ------------------
                      INITIAL GUESS DONE (   4.1 sec)
                      ------------------
--------------
SCF ITERATIONS
--------------
ITER       Energy         Delta-E        Max-DP      RMS-DP      [F,P]     Damp
  0   -967.5852897053   0.000000000000 1.16732453  0.00760886  0.7075128 0.7000
  1   -968.3289434521  -0.743653746841 0.88516100  0.00555841  0.4678391 0.7000
                               ***Turning on DIIS***
  2   -968.9652614110  -0.636317958829 0.74235949  0.00329063  0.1900546 0.7000
  3   -969.4410443885  -0.475782977539 1.99164198  0.01035384  0.0961240 0.0000
  4   -970.0852618633  -0.644217474759 0.14186400  0.00098371  0.1960665 0.7000
  5   -970.1673507575  -0.082088894254 0.15524562  0.00106982  0.1963369 0.7000
  6   -970.2268318670  -0.059481109470 0.13956470  0.00097153  0.1695100 0.7000
  7   -970.2752139635  -0.048382096548 0.13579566  0.00095849  0.1398318 0.7000
  8   -970.3268091340  -0.051595170432 0.11198643  0.00087997  0.1113086 0.7000
  9   -970.3525571213  -0.025747987364 0.28303955  0.00215572  0.0808177 0.0000
 10   -970.3453470010   0.007210120356 0.03936274  0.00041044  0.0374203 0.0000
 11   -970.3483712092  -0.003024208267 0.02494273  0.00024441  0.0246300 0.0000
 12   -970.3498687299  -0.001497520631 0.02453452  0.00016592  0.0148018 0.0000
 13   -970.3504708450  -0.000602115163 0.01501599  0.00011299  0.0082921 0.0000
 14   -970.3506765705  -0.000205725443 0.01591869  0.00010140  0.0041893 0.0000
 15   -970.3507398115  -0.000063241024 0.01041213  0.00006240  0.0016992 0.0000
 16   -970.3507519303  -0.000012118801 0.00887532  0.00007004  0.0006450 0.0000
 17   -970.3507555905  -0.000003660218 0.00777263  0.00004327  0.0001343 0.0000
                 **** Energy Check signals convergence ****

               *****************************************************
               *                     SUCCESS                       *
               *           SCF CONVERGED AFTER  18 CYCLES          *
               *****************************************************


----------------
TOTAL SCF ENERGY
----------------

Total Energy       :         -970.35075579 Eh          -26404.58645 eV

Components:
Nuclear Repulsion  :         1051.27172918 Eh           28606.55808 eV
Electronic Energy  :        -2021.62248497 Eh          -55011.14453 eV
One Electron Energy:        -3430.45104680 Eh          -93347.31867 eV
Two Electron Energy:         1408.82856182 Eh           38336.17414 eV

Virial components:
Potential Energy   :        -1907.48348314 Eh          -51905.26439 eV
Kinetic Energy     :          937.13272734 Eh           25500.67794 eV
Virial Ratio       :            2.03544645


DFT components:
N(Alpha)           :       57.000214657743 electrons
N(Beta)            :       57.000214657743 electrons
N(Total)           :      114.000429315486 electrons
E(X)               :      -29.013394109807 Eh       
E(C)               :       -2.115304343159 Eh       
E(XC)              :      -31.128698452966 Eh       
DFET-embed. en.    :        0.000000000000 Eh       

---------------
SCF CONVERGENCE
---------------

  Last Energy change         ...   -2.0321e-07  Tolerance :   1.0000e-06
  Last MAX-Density change    ...    7.8272e-03  Tolerance :   1.0000e-05
  Last RMS-Density change    ...    4.4843e-05  Tolerance :   1.0000e-06
  Last DIIS Error            ...    1.0053e-04  Tolerance :   1.0000e-06

             **** THE GBW FILE WAS UPDATED (TMB01_T1.gbw) ****
             **** DENSITY FILE WAS UPDATED (TMB01_T1.scfp) ****
             **** ENERGY FILE WAS UPDATED (TMB01_T1.en.tmp) ****
             **** THE GBW FILE WAS UPDATED (TMB01_T1.gbw) ****
             **** DENSITY FILE WAS UPDATED (TMB01_T1.scfp) ****
----------------
ORBITAL ENERGIES
----------------

  NO   OCC          E(Eh)            E(eV) 
   0   2.0000    -103.564188     -2818.1248 
   1   2.0000     -10.877301      -295.9864 
   2   2.0000     -10.871668      -295.8331 
   3   2.0000     -10.871648      -295.8326 
   4   2.0000     -10.870520      -295.8019 
   5   2.0000     -10.866833      -295.7016 
   6   2.0000     -10.866129      -295.6824 
   7   2.0000     -10.865781      -295.6729 
   8   2.0000     -10.865737      -295.6717 
   9   2.0000     -10.864881      -295.6484 
  10   2.0000     -10.864688      -295.6432 
  11   2.0000     -10.861404      -295.5538 
  12   2.0000     -10.861250      -295.5496 
  13   2.0000     -10.082088      -274.3475 
  14   2.0000      -7.654057      -208.2775 
  15   2.0000      -7.653061      -208.2504 
  16   2.0000      -7.652949      -208.2473 
  17   2.0000      -2.400348       -65.3168 
  18   2.0000      -1.444093       -39.2958 
  19   2.0000      -1.437343       -39.1121 
  20   2.0000      -1.430675       -38.9307 
  21   2.0000      -1.088871       -29.6297 
  22   2.0000      -1.076385       -29.2899 
  23   2.0000      -0.951220       -25.8840 
  24   2.0000      -0.909165       -24.7396 
  25   2.0000      -0.890252       -24.2250 
  26   2.0000      -0.889747       -24.2112 
  27   2.0000      -0.888353       -24.1733 
  28   2.0000      -0.883498       -24.0412 
  29   2.0000      -0.707434       -19.2503 
  30   2.0000      -0.692638       -18.8476 
  31   2.0000      -0.686923       -18.6921 
  32   2.0000      -0.682302       -18.5664 
  33   2.0000      -0.681078       -18.5331 
  34   2.0000      -0.665439       -18.1075 
  35   2.0000      -0.656330       -17.8597 
  36   2.0000      -0.626363       -17.0442 
  37   2.0000      -0.522384       -14.2148 
  38   2.0000      -0.516808       -14.0631 
  39   2.0000      -0.514951       -14.0125 
  40   2.0000      -0.513322       -13.9682 
  41   2.0000      -0.508701       -13.8424 
  42   2.0000      -0.493404       -13.4262 
  43   2.0000      -0.490396       -13.3444 
  44   2.0000      -0.487771       -13.2729 
  45   2.0000      -0.485794       -13.2191 
  46   2.0000      -0.476790       -12.9741 
  47   2.0000      -0.418136       -11.3781 
  48   2.0000      -0.395770       -10.7695 
  49   2.0000      -0.386554       -10.5187 
  50   2.0000      -0.374969       -10.2034 
  51   2.0000      -0.361305        -9.8316 
  52   2.0000      -0.342101        -9.3090 
  53   2.0000      -0.336528        -9.1574 
  54   2.0000      -0.319114        -8.6835 
  55   2.0000      -0.296892        -8.0789 
  56   2.0000      -0.289504        -7.8778 
  57   0.0000       0.035316         0.9610 
  58   0.0000       0.042939         1.1684 
  59   0.0000       0.045351         1.2341 
  60   0.0000       0.048258         1.3132 
  61   0.0000       0.051808         1.4098 
  62   0.0000       0.064796         1.7632 
  63   0.0000       0.068101         1.8531 
  64   0.0000       0.069377         1.8878 
  65   0.0000       0.072636         1.9765 
  66   0.0000       0.075933         2.0662 
  67   0.0000       0.077286         2.1030 
  68   0.0000       0.082509         2.2452 
  69   0.0000       0.088249         2.4014 
  70   0.0000       0.094857         2.5812 
  71   0.0000       0.096983         2.6390 
  72   0.0000       0.105585         2.8731 
  73   0.0000       0.106451         2.8967 
  74   0.0000       0.110120         2.9965 
  75   0.0000       0.113292         3.0828 
  76   0.0000       0.118326         3.2198 
  77   0.0000       0.121036         3.2936 
  78   0.0000       0.128042         3.4842 
  79   0.0000       0.133458         3.6316 
  80   0.0000       0.138747         3.7755 
  81   0.0000       0.141190         3.8420 
  82   0.0000       0.144122         3.9218 
  83   0.0000       0.149739         4.0746 
  84   0.0000       0.155612         4.2344 
  85   0.0000       0.165353         4.4995 
  86   0.0000       0.169277         4.6063 
  87   0.0000       0.171920         4.6782 
  88   0.0000       0.173049         4.7089 
  89   0.0000       0.175196         4.7673 
  90   0.0000       0.179230         4.8771 
  91   0.0000       0.186371         5.0714 
  92   0.0000       0.191774         5.2184 
  93   0.0000       0.199228         5.4213 
  94   0.0000       0.205607         5.5949 
  95   0.0000       0.210261         5.7215 
  96   0.0000       0.214606         5.8397 
  97   0.0000       0.219104         5.9621 
  98   0.0000       0.222720         6.0605 
  99   0.0000       0.226720         6.1694 
 100   0.0000       0.228638         6.2216 
 101   0.0000       0.230177         6.2634 
 102   0.0000       0.232913         6.3379 
 103   0.0000       0.236285         6.4296 
 104   0.0000       0.239701         6.5226 
 105   0.0000       0.249132         6.7792 
 106   0.0000       0.252821         6.8796 
 107   0.0000       0.258450         7.0328 
 108   0.0000       0.265217         7.2169 
 109   0.0000       0.270282         7.3547 
 110   0.0000       0.277115         7.5407 
 111   0.0000       0.284073         7.7300 
 112   0.0000       0.288231         7.8432 
 113   0.0000       0.294570         8.0156 
 114   0.0000       0.297494         8.0952 
 115   0.0000       0.299159         8.1405 
 116   0.0000       0.300527         8.1778 
 117   0.0000       0.305353         8.3091 
 118   0.0000       0.307692         8.3727 
 119   0.0000       0.313163         8.5216 
 120   0.0000       0.317343         8.6353 
 121   0.0000       0.319807         8.7024 
 122   0.0000       0.325228         8.8499 
 123   0.0000       0.327241         8.9047 
 124   0.0000       0.329060         8.9542 
 125   0.0000       0.332081         9.0364 
 126   0.0000       0.333291         9.0693 
 127   0.0000       0.338538         9.2121 
 128   0.0000       0.340410         9.2630 
 129   0.0000       0.343031         9.3343 
 130   0.0000       0.346675         9.4335 
 131   0.0000       0.349523         9.5110 
 132   0.0000       0.352612         9.5951 
 133   0.0000       0.356611         9.7039 
 134   0.0000       0.357561         9.7297 
 135   0.0000       0.360844         9.8191 
 136   0.0000       0.363412         9.8889 
 137   0.0000       0.364805         9.9268 
 138   0.0000       0.367770        10.0075 
 139   0.0000       0.373150        10.1539 
 140   0.0000       0.380043        10.3415 
 141   0.0000       0.382008        10.3950 
 142   0.0000       0.386072        10.5056 
 143   0.0000       0.389402        10.5962 
 144   0.0000       0.391033        10.6405 
 145   0.0000       0.395071        10.7504 
 146   0.0000       0.395187        10.7536 
 147   0.0000       0.404162        10.9978 
 148   0.0000       0.406694        11.0667 
 149   0.0000       0.409265        11.1367 
 150   0.0000       0.414566        11.2809 
 151   0.0000       0.418938        11.3999 
 152   0.0000       0.424466        11.5503 
 153   0.0000       0.426687        11.6107 
 154   0.0000       0.431614        11.7448 
 155   0.0000       0.433510        11.7964 
 156   0.0000       0.434838        11.8325 
 157   0.0000       0.439893        11.9701 
 158   0.0000       0.444082        12.0841 
 159   0.0000       0.445751        12.1295 
 160   0.0000       0.452274        12.3070 
 161   0.0000       0.454341        12.3633 
 162   0.0000       0.455306        12.3895 
 163   0.0000       0.457504        12.4493 
 164   0.0000       0.463491        12.6122 
 165   0.0000       0.465405        12.6643 
 166   0.0000       0.469027        12.7629 
 167   0.0000       0.472656        12.8616 
 168   0.0000       0.473802        12.8928 
 169   0.0000       0.479362        13.0441 
 170   0.0000       0.483640        13.1605 
 171   0.0000       0.487269        13.2593 
 172   0.0000       0.496598        13.5131 
 173   0.0000       0.500030        13.6065 
 174   0.0000       0.509034        13.8515 
 175   0.0000       0.513141        13.9633 
 176   0.0000       0.516766        14.0619 
 177   0.0000       0.521642        14.1946 
 178   0.0000       0.528022        14.3682 
 179   0.0000       0.532392        14.4871 
 180   0.0000       0.535023        14.5587 
 181   0.0000       0.540250        14.7010 
 182   0.0000       0.544633        14.8202 
 183   0.0000       0.547079        14.8868 
 184   0.0000       0.549272        14.9465 
 185   0.0000       0.556935        15.1550 
 186   0.0000       0.559089        15.2136 
 187   0.0000       0.559706        15.2304 
 188   0.0000       0.567212        15.4346 
 189   0.0000       0.572789        15.5864 
 190   0.0000       0.577205        15.7066 
 191   0.0000       0.579722        15.7750 
 192   0.0000       0.583602        15.8806 
 193   0.0000       0.584577        15.9071 
 194   0.0000       0.590017        16.0552 
 195   0.0000       0.597078        16.2473 
 196   0.0000       0.599541        16.3143 
 197   0.0000       0.603723        16.4281 
 198   0.0000       0.606648        16.5077 
 199   0.0000       0.608329        16.5535 
 200   0.0000       0.611111        16.6292 
 201   0.0000       0.618501        16.8303 
 202   0.0000       0.626444        17.0464 
 203   0.0000       0.630398        17.1540 
 204   0.0000       0.634046        17.2533 
 205   0.0000       0.636194        17.3117 
 206   0.0000       0.644369        17.5342 
 207   0.0000       0.650043        17.6886 
 208   0.0000       0.654182        17.8012 
 209   0.0000       0.662153        18.0181 
 210   0.0000       0.664141        18.0722 
 211   0.0000       0.674219        18.3464 
 212   0.0000       0.675335        18.3768 
 213   0.0000       0.681414        18.5422 
 214   0.0000       0.683917        18.6103 
 215   0.0000       0.686366        18.6770 
 216   0.0000       0.695325        18.9207 
 217   0.0000       0.696473        18.9520 
 218   0.0000       0.701946        19.1009 
 219   0.0000       0.706407        19.2223 
 220   0.0000       0.707324        19.2473 
 221   0.0000       0.711470        19.3601 
 222   0.0000       0.716810        19.5054 
 223   0.0000       0.721950        19.6453 
 224   0.0000       0.723788        19.6953 
 225   0.0000       0.732718        19.9383 
 226   0.0000       0.738668        20.1002 
 227   0.0000       0.741176        20.1684 
 228   0.0000       0.743726        20.2378 
 229   0.0000       0.747682        20.3455 
 230   0.0000       0.749806        20.4033 
 231   0.0000       0.753321        20.4989 
 232   0.0000       0.754891        20.5416 
 233   0.0000       0.755691        20.5634 
 234   0.0000       0.759719        20.6730 
 235   0.0000       0.763496        20.7758 
 236   0.0000       0.768435        20.9102 
 237   0.0000       0.774955        21.0876 
 238   0.0000       0.776362        21.1259 
 239   0.0000       0.781289        21.2599 
 240   0.0000       0.782384        21.2898 
 241   0.0000       0.787465        21.4280 
 242   0.0000       0.790490        21.5103 
 243   0.0000       0.794885        21.6299 
 244   0.0000       0.798609        21.7313 
 245   0.0000       0.800608        21.7857 
 246   0.0000       0.807086        21.9619 
 247   0.0000       0.808750        22.0072 
 248   0.0000       0.816862        22.2279 
 249   0.0000       0.821362        22.3504 
 250   0.0000       0.826734        22.4966 
 251   0.0000       0.829349        22.5677 
 252   0.0000       0.833333        22.6761 
 253   0.0000       0.835868        22.7451 
 254   0.0000       0.840589        22.8736 
 255   0.0000       0.842895        22.9363 
 256   0.0000       0.845131        22.9972 
 257   0.0000       0.849448        23.1147 
 258   0.0000       0.852872        23.2078 
 259   0.0000       0.859276        23.3821 
 260   0.0000       0.863480        23.4965 
 261   0.0000       0.865033        23.5387 
 262   0.0000       0.867891        23.6165 
 263   0.0000       0.870144        23.6778 
 264   0.0000       0.876045        23.8384 
 265   0.0000       0.882172        24.0051 
 266   0.0000       0.888075        24.1658 
 267   0.0000       0.891545        24.2602 
 268   0.0000       0.898722        24.4555 
 269   0.0000       0.901355        24.5271 
 270   0.0000       0.905727        24.6461 
 271   0.0000       0.909234        24.7415 
 272   0.0000       0.912265        24.8240 
 273   0.0000       0.922752        25.1094 
 274   0.0000       0.925631        25.1877 
 275   0.0000       0.933689        25.4070 
 276   0.0000       0.943836        25.6831 
 277   0.0000       0.951353        25.8876 
 278   0.0000       0.957643        26.0588 
 279   0.0000       0.966355        26.2959 
 280   0.0000       0.971264        26.4294 
 281   0.0000       0.977327        26.5944 
 282   0.0000       0.982965        26.7478 
 283   0.0000       0.997712        27.1491 
 284   0.0000       1.006499        27.3882 
 285   0.0000       1.015095        27.6221 
 286   0.0000       1.015816        27.6418 
 287   0.0000       1.020758        27.7762 
 288   0.0000       1.030130        28.0312 
 289   0.0000       1.034222        28.1426 
 290   0.0000       1.052494        28.6398 
 291   0.0000       1.064275        28.9604 
 292   0.0000       1.066858        29.0307 
 293   0.0000       1.072809        29.1926 
 294   0.0000       1.078688        29.3526 
 295   0.0000       1.081662        29.4335 
 296   0.0000       1.086259        29.5586 
 297   0.0000       1.106077        30.0979 
 298   0.0000       1.110501        30.2183 
 299   0.0000       1.117171        30.3998 
 300   0.0000       1.128566        30.7098 
 301   0.0000       1.138885        30.9906 
 302   0.0000       1.145081        31.1592 
 303   0.0000       1.160072        31.5672 
 304   0.0000       1.163962        31.6730 
 305   0.0000       1.166474        31.7414 
 306   0.0000       1.176411        32.0118 
 307   0.0000       1.179432        32.0940 
 308   0.0000       1.194077        32.4925 
 309   0.0000       1.202197        32.7134 
 310   0.0000       1.206470        32.8297 
 311   0.0000       1.217848        33.1393 
 312   0.0000       1.233147        33.5556 
 313   0.0000       1.245954        33.9041 
 314   0.0000       1.246779        33.9266 
 315   0.0000       1.252980        34.0953 
 316   0.0000       1.260016        34.2868 
 317   0.0000       1.267998        34.5040 
 318   0.0000       1.275771        34.7155 
 319   0.0000       1.278467        34.7889 
 320   0.0000       1.294545        35.2263 
 321   0.0000       1.297586        35.3091 
 322   0.0000       1.306841        35.5610 
 323   0.0000       1.321405        35.9573 
 324   0.0000       1.327660        36.1275 
 325   0.0000       1.331432        36.2301 
 326   0.0000       1.346022        36.6271 
 327   0.0000       1.354559        36.8594 
 328   0.0000       1.364970        37.1427 
 329   0.0000       1.375654        37.4335 
 330   0.0000       1.391296        37.8591 
 331   0.0000       1.400564        38.1113 
 332   0.0000       1.401461        38.1357 
 333   0.0000       1.411392        38.4059 
 334   0.0000       1.427337        38.8398 
 335   0.0000       1.429184        38.8901 
 336   0.0000       1.440849        39.2075 
 337   0.0000       1.456604        39.6362 
 338   0.0000       1.463542        39.8250 
 339   0.0000       1.465932        39.8900 
 340   0.0000       1.473037        40.0834 
 341   0.0000       1.490759        40.5656 
 342   0.0000       1.495884        40.7051 
 343   0.0000       1.507127        41.0110 
 344   0.0000       1.510679        41.1077 
 345   0.0000       1.511960        41.1425 
 346   0.0000       1.519632        41.3513 
 347   0.0000       1.529493        41.6196 
 348   0.0000       1.533217        41.7209 
 349   0.0000       1.541731        41.9526 
 350   0.0000       1.542271        41.9673 
 351   0.0000       1.552786        42.2534 
 352   0.0000       1.560099        42.4524 
 353   0.0000       1.563611        42.5480 
 354   0.0000       1.576082        42.8874 
 355   0.0000       1.577120        42.9156 
 356   0.0000       1.579305        42.9751 
 357   0.0000       1.590044        43.2673 
 358   0.0000       1.594289        43.3828 
 359   0.0000       1.600658        43.5561 
 360   0.0000       1.610378        43.8206 
 361   0.0000       1.613969        43.9183 
 362   0.0000       1.618880        44.0520 
 363   0.0000       1.622800        44.1586 
 364   0.0000       1.626800        44.2675 
 365   0.0000       1.632655        44.4268 
 366   0.0000       1.641463        44.6665 
 367   0.0000       1.643823        44.7307 
 368   0.0000       1.649497        44.8851 
 369   0.0000       1.656832        45.0847 
 370   0.0000       1.666352        45.3437 
 371   0.0000       1.667974        45.3879 
 372   0.0000       1.677159        45.6378 
 373   0.0000       1.682973        45.7960 
 374   0.0000       1.697504        46.1914 
 375   0.0000       1.701901        46.3111 
 376   0.0000       1.705870        46.4191 
 377   0.0000       1.713413        46.6243 
 378   0.0000       1.724927        46.9377 
 379   0.0000       1.742868        47.4259 
 380   0.0000       1.750566        47.6353 
 381   0.0000       1.750741        47.6401 
 382   0.0000       1.771215        48.1972 
 383   0.0000       1.778469        48.3946 
 384   0.0000       1.780341        48.4455 
 385   0.0000       1.787956        48.6528 
 386   0.0000       1.804753        49.1098 
 387   0.0000       1.816368        49.4259 
 388   0.0000       1.834125        49.9091 
 389   0.0000       1.845172        50.2097 
 390   0.0000       1.849862        50.3373 
 391   0.0000       1.860996        50.6403 
 392   0.0000       1.870869        50.9089 
 393   0.0000       1.886453        51.3330 
 394   0.0000       1.895788        51.5870 
 395   0.0000       1.901334        51.7379 
 396   0.0000       1.926447        52.4213 
 397   0.0000       1.936916        52.7062 
 398   0.0000       1.941439        52.8292 
 399   0.0000       1.949841        53.0579 
 400   0.0000       1.958089        53.2823 
 401   0.0000       1.978835        53.8468 
 402   0.0000       1.990480        54.1637 
 403   0.0000       2.003841        54.5273 
 404   0.0000       2.004869        54.5553 
 405   0.0000       2.008453        54.6528 
 406   0.0000       2.016090        54.8606 
 407   0.0000       2.022453        55.0337 
 408   0.0000       2.023916        55.0736 
 409   0.0000       2.041327        55.5473 
 410   0.0000       2.046672        55.6928 
 411   0.0000       2.049168        55.7607 
 412   0.0000       2.059327        56.0371 
 413   0.0000       2.069358        56.3101 
 414   0.0000       2.073645        56.4267 
 415   0.0000       2.078411        56.5564 
 416   0.0000       2.079460        56.5850 
 417   0.0000       2.099409        57.1278 
 418   0.0000       2.107669        57.3526 
 419   0.0000       2.120812        57.7102 
 420   0.0000       2.131208        57.9931 
 421   0.0000       2.136488        58.1368 
 422   0.0000       2.146921        58.4207 
 423   0.0000       2.152021        58.5595 
 424   0.0000       2.163218        58.8642 
 425   0.0000       2.174264        59.1647 
 426   0.0000       2.182381        59.3856 
 427   0.0000       2.194193        59.7070 
 428   0.0000       2.202247        59.9262 
 429   0.0000       2.212550        60.2066 
 430   0.0000       2.223202        60.4964 
 431   0.0000       2.243632        61.0523 
 432   0.0000       2.253864        61.3307 
 433   0.0000       2.272014        61.8246 
 434   0.0000       2.281040        62.0703 
 435   0.0000       2.291982        62.3680 
 436   0.0000       2.303763        62.6886 
 437   0.0000       2.311225        62.8916 
 438   0.0000       2.317655        63.0666 
 439   0.0000       2.334333        63.5204 
 440   0.0000       2.335232        63.5449 
 441   0.0000       2.347802        63.8869 
 442   0.0000       2.361138        64.2498 
 443   0.0000       2.367311        64.4178 
 444   0.0000       2.379186        64.7410 
 445   0.0000       2.399018        65.2806 
 446   0.0000       2.409716        65.5717 
 447   0.0000       2.419276        65.8318 
 448   0.0000       2.428578        66.0850 
 449   0.0000       2.448367        66.6234 
 450   0.0000       2.454812        66.7988 
 451   0.0000       2.472569        67.2820 
 452   0.0000       2.489641        67.7466 
 453   0.0000       2.502523        68.0971 
 454   0.0000       2.508600        68.2625 
 455   0.0000       2.525699        68.7278 
 456   0.0000       2.551114        69.4194 
 457   0.0000       2.566095        69.8270 
 458   0.0000       2.578202        70.1564 
 459   0.0000       2.588752        70.4435 
 460   0.0000       2.595019        70.6141 
 461   0.0000       2.608372        70.9774 
 462   0.0000       2.641903        71.8898 
 463   0.0000       2.660565        72.3976 
 464   0.0000       2.663754        72.4844 
 465   0.0000       2.674257        72.7702 
 466   0.0000       2.676049        72.8190 
 467   0.0000       2.700614        73.4875 
 468   0.0000       2.714117        73.8549 
 469   0.0000       2.733049        74.3700 
 470   0.0000       2.751366        74.8685 
 471   0.0000       2.764118        75.2155 
 472   0.0000       2.782916        75.7270 
 473   0.0000       2.794641        76.0460 
 474   0.0000       2.809809        76.4588 
 475   0.0000       2.811757        76.5118 
 476   0.0000       2.815591        76.6161 
 477   0.0000       2.823087        76.8201 
 478   0.0000       2.828437        76.9657 
 479   0.0000       2.840886        77.3044 
 480   0.0000       2.853779        77.6553 
 481   0.0000       2.870816        78.1189 
 482   0.0000       2.877818        78.3094 
 483   0.0000       2.893931        78.7479 
 484   0.0000       2.898461        78.8711 
 485   0.0000       2.909776        79.1790 
 486   0.0000       2.913614        79.2835 
 487   0.0000       2.922088        79.5140 
 488   0.0000       2.926290        79.6284 
 489   0.0000       2.956762        80.4576 
 490   0.0000       2.964923        80.6797 
 491   0.0000       2.980207        81.0955 
 492   0.0000       2.998093        81.5822 
 493   0.0000       3.004822        81.7654 
 494   0.0000       3.013116        81.9911 
 495   0.0000       3.037501        82.6546 
 496   0.0000       3.040537        82.7372 
 497   0.0000       3.045449        82.8709 
 498   0.0000       3.047103        82.9159 
 499   0.0000       3.073686        83.6392 
 500   0.0000       3.080042        83.8122 
 501   0.0000       3.083216        83.8986 
 502   0.0000       3.087653        84.0193 
 503   0.0000       3.098040        84.3020 
 504   0.0000       3.102442        84.4217 
 505   0.0000       3.105028        84.4921 
 506   0.0000       3.112028        84.6826 
 507   0.0000       3.123798        85.0029 
 508   0.0000       3.137640        85.3795 
 509   0.0000       3.148260        85.6685 
 510   0.0000       3.158371        85.9436 
 511   0.0000       3.177741        86.4707 
 512   0.0000       3.186605        86.7119 
 513   0.0000       3.192572        86.8743 
 514   0.0000       3.211539        87.3904 
 515   0.0000       3.225438        87.7686 
 516   0.0000       3.247168        88.3599 
 517   0.0000       3.256146        88.6042 
 518   0.0000       3.260581        88.7249 
 519   0.0000       3.266961        88.8985 
 520   0.0000       3.271128        89.0119 
 521   0.0000       3.285424        89.4009 
 522   0.0000       3.293310        89.6155 
 523   0.0000       3.301516        89.8388 
 524   0.0000       3.313617        90.1681 
 525   0.0000       3.327894        90.5566 
 526   0.0000       3.338920        90.8566 
 527   0.0000       3.340999        90.9132 
 528   0.0000       3.349975        91.1575 
 529   0.0000       3.357038        91.3496 
 530   0.0000       3.369962        91.7013 
 531   0.0000       3.380427        91.9861 
 532   0.0000       3.402892        92.5974 
 533   0.0000       3.411201        92.8235 
 534   0.0000       3.415579        92.9426 
 535   0.0000       3.435563        93.4864 
 536   0.0000       3.444317        93.7246 
 537   0.0000       3.455421        94.0268 
 538   0.0000       3.463434        94.2448 
 539   0.0000       3.481062        94.7245 
 540   0.0000       3.490083        94.9700 
 541   0.0000       3.495610        95.1204 
 542   0.0000       3.509269        95.4921 
 543   0.0000       3.512753        95.5869 
 544   0.0000       3.531560        96.0986 
 545   0.0000       3.532427        96.1222 
 546   0.0000       3.553350        96.6916 
 547   0.0000       3.556338        96.7729 
 548   0.0000       3.562374        96.9371 
 549   0.0000       3.575921        97.3058 
 550   0.0000       3.576461        97.3205 
 551   0.0000       3.581720        97.4636 
 552   0.0000       3.588555        97.6495 
 553   0.0000       3.596007        97.8523 
 554   0.0000       3.605626        98.1141 
 555   0.0000       3.607927        98.1767 
 556   0.0000       3.616998        98.4235 
 557   0.0000       3.629823        98.7725 
 558   0.0000       3.641532        99.0911 
 559   0.0000       3.648057        99.2687 
 560   0.0000       3.658508        99.5531 
 561   0.0000       3.667472        99.7970 
 562   0.0000       3.672775        99.9413 
 563   0.0000       3.676811       100.0511 
 564   0.0000       3.679103       100.1135 
 565   0.0000       3.685829       100.2965 
 566   0.0000       3.691097       100.4398 
 567   0.0000       3.711341       100.9907 
 568   0.0000       3.720999       101.2535 
 569   0.0000       3.724685       101.3538 
 570   0.0000       3.725743       101.3826 
 571   0.0000       3.735191       101.6397 
 572   0.0000       3.740584       101.7865 
 573   0.0000       3.746125       101.9372 
 574   0.0000       3.756108       102.2089 
 575   0.0000       3.759152       102.2917 
 576   0.0000       3.761586       102.3580 
 577   0.0000       3.767445       102.5174 
 578   0.0000       3.768062       102.5342 
 579   0.0000       3.782061       102.9151 
 580   0.0000       3.782661       102.9314 
 581   0.0000       3.796753       103.3149 
 582   0.0000       3.802516       103.4717 
 583   0.0000       3.809655       103.6660 
 584   0.0000       3.821343       103.9840 
 585   0.0000       3.823123       104.0325 
 586   0.0000       3.827439       104.1499 
 587   0.0000       3.838030       104.4381 
 588   0.0000       3.845562       104.6430 
 589   0.0000       3.854349       104.8822 
 590   0.0000       3.858136       104.9852 
 591   0.0000       3.865410       105.1832 
 592   0.0000       3.870762       105.3288 
 593   0.0000       3.876174       105.4761 
 594   0.0000       3.880641       105.5976 
 595   0.0000       3.883071       105.6637 
 596   0.0000       3.886299       105.7516 
 597   0.0000       3.894974       105.9876 
 598   0.0000       3.902382       106.1892 
 599   0.0000       3.904966       106.2595 
 600   0.0000       3.922903       106.7476 
 601   0.0000       3.925655       106.8225 
 602   0.0000       3.936260       107.1111 
 603   0.0000       3.946967       107.4024 
 604   0.0000       3.959408       107.7410 
 605   0.0000       3.963836       107.8615 
 606   0.0000       3.973695       108.1297 
 607   0.0000       3.989246       108.5529 
 608   0.0000       4.004118       108.9576 
 609   0.0000       4.012565       109.1875 
 610   0.0000       4.022967       109.4705 
 611   0.0000       4.056424       110.3809 
 612   0.0000       4.068565       110.7113 
 613   0.0000       4.101995       111.6210 
 614   0.0000       4.103775       111.6694 
 615   0.0000       4.112628       111.9103 
 616   0.0000       4.130815       112.4052 
 617   0.0000       4.134482       112.5050 
 618   0.0000       4.156302       113.0987 
 619   0.0000       4.161883       113.2506 
 620   0.0000       4.168421       113.4285 
 621   0.0000       4.168746       113.4374 
 622   0.0000       4.176258       113.6418 
 623   0.0000       4.182472       113.8108 
 624   0.0000       4.194766       114.1454 
 625   0.0000       4.200068       114.2897 
 626   0.0000       4.218585       114.7935 
 627   0.0000       4.256622       115.8286 
 628   0.0000       4.264331       116.0383 
 629   0.0000       4.273541       116.2890 
 630   0.0000       4.286664       116.6460 
 631   0.0000       4.295796       116.8945 
 632   0.0000       4.298138       116.9583 
 633   0.0000       4.320398       117.5640 
 634   0.0000       4.335853       117.9846 
 635   0.0000       4.357298       118.5681 
 636   0.0000       4.372131       118.9717 
 637   0.0000       4.381543       119.2279 
 638   0.0000       4.388617       119.4203 
 639   0.0000       4.403196       119.8171 
 640   0.0000       4.408689       119.9665 
 641   0.0000       4.419614       120.2638 
 642   0.0000       4.429604       120.5357 
 643   0.0000       4.437215       120.7428 
 644   0.0000       4.448194       121.0415 
 645   0.0000       4.460423       121.3743 
 646   0.0000       4.467160       121.5576 
 647   0.0000       4.472986       121.7161 
 648   0.0000       4.481596       121.9504 
 649   0.0000       4.484503       122.0295 
 650   0.0000       4.490102       122.1819 
 651   0.0000       4.495003       122.3152 
 652   0.0000       4.502215       122.5115 
 653   0.0000       4.511465       122.7632 
 654   0.0000       4.516216       122.8925 
 655   0.0000       4.522210       123.0556 
 656   0.0000       4.523817       123.0993 
 657   0.0000       4.537978       123.4847 
 658   0.0000       4.542487       123.6074 
 659   0.0000       4.549056       123.7861 
 660   0.0000       4.560657       124.1018 
 661   0.0000       4.576099       124.5220 
 662   0.0000       4.592879       124.9786 
 663   0.0000       4.625877       125.8765 
 664   0.0000       4.643109       126.3454 
 665   0.0000       4.653546       126.6294 
 666   0.0000       4.669292       127.0579 
 667   0.0000       4.676880       127.2644 
 668   0.0000       4.696296       127.7927 
 669   0.0000       4.708915       128.1361 
 670   0.0000       4.714759       128.2951 
 671   0.0000       4.718973       128.4098 
 672   0.0000       4.726680       128.6195 
 673   0.0000       4.738859       128.9509 
 674   0.0000       4.744591       129.1069 
 675   0.0000       4.754141       129.3667 
 676   0.0000       4.766416       129.7008 
 677   0.0000       4.774263       129.9143 
 678   0.0000       4.784990       130.2062 
 679   0.0000       4.798697       130.5792 
 680   0.0000       4.817937       131.1027 
 681   0.0000       4.823573       131.2561 
 682   0.0000       4.839283       131.6836 
 683   0.0000       4.855367       132.1212 
 684   0.0000       4.870439       132.5314 
 685   0.0000       4.889416       133.0478 
 686   0.0000       4.903916       133.4423 
 687   0.0000       5.003287       136.1464 
 688   0.0000       5.009574       136.3174 
 689   0.0000       5.012242       136.3900 
 690   0.0000       5.055733       137.5735 
 691   0.0000       5.072590       138.0322 
 692   0.0000       5.079393       138.2173 
 693   0.0000       5.080559       138.2490 
 694   0.0000       5.085130       138.3734 
 695   0.0000       5.121637       139.3668 
 696   0.0000       5.138300       139.8203 
 697   0.0000       5.143136       139.9518 
 698   0.0000       5.153050       140.2216 
 699   0.0000       5.156039       140.3030 
 700   0.0000       5.193456       141.3211 
 701   0.0000       5.200512       141.5131 
 702   0.0000       5.212174       141.8305 
 703   0.0000       5.220156       142.0477 
 704   0.0000       5.223257       142.1321 
 705   0.0000       5.256684       143.0416 
 706   0.0000       5.279683       143.6675 
 707   0.0000       5.430298       147.7659 
 708   0.0000       5.499327       149.6443 
 709   0.0000       5.503840       149.7671 
 710   0.0000       5.515852       150.0940 
 711   0.0000       5.520410       150.2180 
 712   0.0000       5.525596       150.3591 
 713   0.0000       5.532196       150.5387 
 714   0.0000       5.539843       150.7468 
 715   0.0000       5.544189       150.8651 
 716   0.0000       5.581380       151.8771 
 717   0.0000       5.581696       151.8857 
 718   0.0000       5.596692       152.2937 
 719   0.0000       5.603739       152.4855 
 720   0.0000       5.624469       153.0496 
 721   0.0000       5.627828       153.1410 
 722   0.0000       5.647118       153.6659 
 723   0.0000       5.650972       153.7708 
 724   0.0000       5.659526       154.0035 
 725   0.0000       5.670312       154.2970 
 726   0.0000       5.674920       154.4224 
 727   0.0000       5.683282       154.6500 
 728   0.0000       5.708668       155.3408 
 729   0.0000       5.724339       155.7672 
 730   0.0000       5.793141       157.6394 
 731   0.0000       5.847038       159.1060 
 732   0.0000       5.853583       159.2841 
 733   0.0000       5.997536       163.2012 
 734   0.0000       6.006581       163.4474 
 735   0.0000       6.013279       163.6296 
 736   0.0000       6.040510       164.3706 
 737   0.0000       6.237915       169.7423 
 738   0.0000       6.249238       170.0504 
 739   0.0000       6.255406       170.2182 
 740   0.0000       6.266894       170.5309 
 741   0.0000       6.277759       170.8265 
 742   0.0000       6.287415       171.0893 
 743   0.0000       6.291789       171.2083 
 744   0.0000       6.300728       171.4515 
 745   0.0000       6.549123       178.2107 
 746   0.0000       6.801395       185.0754 
 747   0.0000       6.878268       187.1672 
 748   0.0000       6.885370       187.3604 
 749   0.0000       8.682090       236.2517 
 750   0.0000       8.703282       236.8283 
 751   0.0000       8.744227       237.9425 
 752   0.0000       8.814552       239.8561 
 753   0.0000       8.821825       240.0541 
 754   0.0000      11.628151       316.4181 
 755   0.0000      11.666112       317.4510 
 756   0.0000      11.828258       321.8633 
 757   0.0000      21.406706       582.5061 
 758   0.0000      23.919754       650.8896 
 759   0.0000      23.966537       652.1626 
 760   0.0000      24.122001       656.3930 
 761   0.0000      24.123999       656.4474 
 762   0.0000      24.151572       657.1977 
 763   0.0000      24.170841       657.7220 
 764   0.0000      24.211389       658.8254 
 765   0.0000      24.498250       666.6313 
 766   0.0000      24.507935       666.8948 
 767   0.0000      24.537141       667.6895 
 768   0.0000      24.540626       667.7844 
 769   0.0000      24.771417       674.0645 
 770   0.0000      27.106590       737.6078 
 771   0.0000      72.234495      1965.6005 

                    ********************************
                    * MULLIKEN POPULATION ANALYSIS *
                    ********************************

-----------------------
MULLIKEN ATOMIC CHARGES
-----------------------
   0 Zr:   -0.349826
   1 C :    0.101964
   2 C :    0.216984
   3 C :    0.054867
   4 H :    0.060477
   5 C :    0.081361
   6 H :    0.045782
   7 C :   -0.037446
   8 H :    0.024012
   9 H :    0.014363
  10 C :    0.083433
  11 C :    0.033511
  12 C :    0.180440
  13 H :    0.019619
  14 C :    0.050940
  15 H :    0.027457
  16 C :   -0.008008
  17 H :    0.127099
  18 H :   -0.031190
  19 Cl:   -0.675294
  20 C :   -0.075910
  21 C :    0.075834
  22 H :    0.055528
  23 H :   -0.130316
  24 H :    0.022072
  25 H :    0.001944
  26 H :    0.030303
Sum of atomic charges:   -0.0000000

--------------------------------
MULLIKEN REDUCED ORBITAL CHARGES
--------------------------------
  0 Zrs       :     2.507591  s :     2.507591
      pz      :     2.440683  p :     7.450736
      px      :     2.541349
      py      :     2.468703
      dz2     :     0.571058  d :     2.053482
      dxz     :     0.437392
      dyz     :     0.329235
      dx2y2   :     0.369607
      dxy     :     0.346189
      f0      :     0.068428  f :     0.293598
      f+1     :     0.018213
      f-1     :     0.024672
      f+2     :     0.042830
      f-2     :     0.042423
      f+3     :     0.051936
      f-3     :     0.045095
      g0      :     0.003221  g :     0.044419
      g+1     :     0.004911
      g-1     :     0.004295
      g+2     :     0.004100
      g-2     :     0.003768
      g+3     :     0.005754
      g-3     :     0.005833
      g+4     :     0.005412
      g-4     :     0.007124
  1 C s       :     3.027911  s :     3.027911
      pz      :     1.028132  p :     2.837424
      px      :     0.893931
      py      :     0.915361
      dz2     :    -0.007788  d :     0.024191
      dxz     :    -0.008589
      dyz     :     0.004294
      dx2y2   :     0.007649
      dxy     :     0.028625
      f0      :     0.001486  f :     0.008509
      f+1     :     0.000432
      f-1     :     0.002127
      f+2     :     0.001218
      f-2     :     0.001584
      f+3     :     0.000856
      f-3     :     0.000805
  2 C s       :     2.796880  s :     2.796880
      pz      :     0.953034  p :     2.959406
      px      :     0.966360
      py      :     1.040012
      dz2     :     0.019662  d :     0.018478
      dxz     :     0.026767
      dyz     :    -0.018091
      dx2y2   :    -0.036314
      dxy     :     0.026454
      f0      :     0.001348  f :     0.008253
      f+1     :     0.001105
      f-1     :     0.001960
      f+2     :     0.000967
      f-2     :     0.001089
      f+3     :     0.000881
      f-3     :     0.000902
  3 C s       :     3.007777  s :     3.007777
      pz      :     0.910635  p :     2.889349
      px      :     1.029134
      py      :     0.949580
      dz2     :     0.001947  d :     0.039857
      dxz     :     0.033257
      dyz     :     0.015650
      dx2y2   :    -0.017345
      dxy     :     0.006348
      f0      :     0.001450  f :     0.008150
      f+1     :     0.000830
      f-1     :     0.001912
      f+2     :     0.001277
      f-2     :     0.001096
      f+3     :     0.000717
      f-3     :     0.000869
  4 H s       :     0.897623  s :     0.897623
      pz      :     0.011153  p :     0.039737
      px      :     0.007175
      py      :     0.021409
      dz2     :     0.000334  d :     0.002163
      dxz     :     0.000112
      dyz     :     0.000610
      dx2y2   :     0.000468
      dxy     :     0.000638
  5 C s       :     2.900048  s :     2.900048
      pz      :     0.978794  p :     2.957774
      px      :     0.984579
      py      :     0.994401
      dz2     :     0.007072  d :     0.052570
      dxz     :     0.011029
      dyz     :    -0.010812
      dx2y2   :     0.027764
      dxy     :     0.017517
      f0      :     0.001616  f :     0.008248
      f+1     :     0.001419
      f-1     :     0.001708
      f+2     :     0.001162
      f-2     :     0.000328
      f+3     :     0.001268
      f-3     :     0.000746
  6 H s       :     0.909551  s :     0.909551
      pz      :    -0.001267  p :     0.042581
      px      :     0.036419
      py      :     0.007429
      dz2     :     0.000227  d :     0.002086
      dxz     :     0.000088
      dyz     :     0.000674
      dx2y2   :     0.000387
      dxy     :     0.000710
  7 C s       :     3.137959  s :     3.137959
      pz      :     0.989259  p :     2.867589
      px      :     0.864682
      py      :     1.013648
      dz2     :    -0.020160  d :     0.023465
      dxz     :    -0.002360
      dyz     :     0.004689
      dx2y2   :     0.020765
      dxy     :     0.020531
      f0      :     0.001713  f :     0.008432
      f+1     :     0.001316
      f-1     :     0.001624
      f+2     :     0.001159
      f-2     :     0.000575
      f+3     :     0.000918
      f-3     :     0.001127
  8 H s       :     0.922284  s :     0.922284
      pz      :     0.017898  p :     0.051585
      px      :     0.024102
      py      :     0.009586
      dz2     :     0.000666  d :     0.002118
      dxz     :     0.000439
      dyz     :     0.000440
      dx2y2   :     0.000266
      dxy     :     0.000307
  9 H s       :     0.928843  s :     0.928843
      pz      :     0.015234  p :     0.054701
      px      :     0.023652
      py      :     0.015815
      dz2     :     0.000690  d :     0.002092
      dxz     :     0.000512
      dyz     :     0.000431
      dx2y2   :     0.000229
      dxy     :     0.000230
 10 C s       :     2.889404  s :     2.889404
      pz      :     0.958607  p :     2.992478
      px      :     0.891680
      py      :     1.142191
      dz2     :     0.009505  d :     0.026429
      dxz     :     0.018031
      dyz     :    -0.015705
      dx2y2   :     0.023080
      dxy     :    -0.008482
      f0      :     0.001314  f :     0.008257
      f+1     :     0.001636
      f-1     :     0.001628
      f+2     :     0.000726
      f-2     :     0.001080
      f+3     :     0.000915
      f-3     :     0.000958
 11 C s       :     3.064384  s :     3.064384
      pz      :     1.033759  p :     2.863710
      px      :     0.924274
      py      :     0.905677
      dz2     :    -0.016349  d :     0.029885
      dxz     :     0.006373
      dyz     :     0.000952
      dx2y2   :     0.034854
      dxy     :     0.004055
      f0      :     0.001515  f :     0.008510
      f+1     :     0.001136
      f-1     :     0.001418
      f+2     :     0.001550
      f-2     :     0.001205
      f+3     :     0.000793
      f-3     :     0.000891
 12 C s       :     2.841053  s :     2.841053
      pz      :     0.968361  p :     2.926211
      px      :     0.884071
      py      :     1.073780
      dz2     :     0.015981  d :     0.044043
      dxz     :     0.020266
      dyz     :    -0.009506
      dx2y2   :     0.016542
      dxy     :     0.000759
      f0      :     0.001500  f :     0.008253
      f+1     :     0.001650
      f-1     :     0.001685
      f+2     :     0.000185
      f-2     :     0.001181
      f+3     :     0.000719
      f-3     :     0.001333
 13 H s       :     0.941943  s :     0.941943
      pz      :     0.012033  p :     0.036360
      px      :     0.016851
      py      :     0.007476
      dz2     :     0.000540  d :     0.002078
      dxz     :     0.000738
      dyz     :     0.000726
      dx2y2   :     0.000038
      dxy     :     0.000036
 14 C s       :     2.977683  s :     2.977683
      pz      :     0.907887  p :     2.886336
      px      :     1.051704
      py      :     0.926744
      dz2     :     0.001157  d :     0.076881
      dxz     :     0.001319
      dyz     :     0.051348
      dx2y2   :     0.056839
      dxy     :    -0.033782
      f0      :     0.001534  f :     0.008160
      f+1     :     0.000974
      f-1     :     0.001542
      f+2     :     0.001462
      f-2     :     0.001134
      f+3     :     0.000869
      f-3     :     0.000646
 15 H s       :     0.920553  s :     0.920553
      pz      :     0.016387  p :     0.049871
      px      :     0.004597
      py      :     0.028887
      dz2     :     0.000654  d :     0.002119
      dxz     :     0.000320
      dyz     :     0.000481
      dx2y2   :     0.000369
      dxy     :     0.000295
 16 C s       :     3.152255  s :     3.152255
      pz      :     0.993423  p :     2.847678
      px      :     0.904945
      py      :     0.949310
      dz2     :    -0.032585  d :    -0.000312
      dxz     :    -0.006319
      dyz     :     0.017470
      dx2y2   :     0.011405
      dxy     :     0.009717
      f0      :     0.001725  f :     0.008388
      f+1     :     0.001292
      f-1     :     0.001453
      f+2     :     0.000652
      f-2     :     0.001302
      f+3     :     0.000958
      f-3     :     0.001005
 17 H s       :     0.851365  s :     0.851365
      pz      :    -0.002107  p :     0.019440
      px      :     0.027285
      py      :    -0.005738
      dz2     :     0.000185  d :     0.002096
      dxz     :     0.000318
      dyz     :     0.000470
      dx2y2   :     0.000693
      dxy     :     0.000430
 18 H s       :     0.965190  s :     0.965190
      pz      :     0.017583  p :     0.063900
      px      :     0.027186
      py      :     0.019131
      dz2     :     0.000682  d :     0.002099
      dxz     :     0.000606
      dyz     :     0.000442
      dx2y2   :     0.000185
      dxy     :     0.000184
 19 Cls       :     6.019579  s :     6.019579
      pz      :     3.818094  p :    11.637996
      px      :     3.968868
      py      :     3.851034
      dz2     :     0.003678  d :     0.016855
[...]
      dxz     :     0.135830
      dyz     :     0.145840
      dx2y2   :     0.158410
      dxy     :     0.158572
      f0      :     0.006956  f :     0.048721
      f+1     :     0.006719
      f-1     :     0.009589
      f+2     :     0.010372
      f-2     :     0.007835
      f+3     :     0.004071
      f-3     :     0.003178
 12 C s       :     2.624199  s :     2.624199
      pz      :     0.909356  p :     2.586960
      px      :     0.826754
      py      :     0.850850
      dz2     :     0.158724  d :     0.788193
      dxz     :     0.175591
      dyz     :     0.212073
      dx2y2   :     0.123087
      dxy     :     0.118718
      f0      :     0.010641  f :     0.048072
      f+1     :     0.009951
      f-1     :     0.009762
      f+2     :     0.001130
      f-2     :     0.006226
      f+3     :     0.004466
      f-3     :     0.005895
 13 H s       :     0.703636  s :     0.703636
      pz      :     0.119956  p :     0.266126
      px      :     0.077712
      py      :     0.068458
      dz2     :     0.011547  d :     0.028567
      dxz     :     0.008269
      dyz     :     0.008269
      dx2y2   :     0.000224
      dxy     :     0.000258
 14 C s       :     2.627405  s :     2.627405
      pz      :     0.907968  p :     2.599295
      px      :     0.816753
      py      :     0.874574
      dz2     :     0.218444  d :     0.782726
      dxz     :     0.166472
      dyz     :     0.185049
      dx2y2   :     0.090130
      dxy     :     0.122631
      f0      :     0.010098  f :     0.047194
      f+1     :     0.005469
      f-1     :     0.008872
      f+2     :     0.009462
      f-2     :     0.007782
      f+3     :     0.003515
      f-3     :     0.001995
 15 H s       :     0.701347  s :     0.701347
      pz      :     0.090490  p :     0.262165
      px      :     0.089004
      py      :     0.082672
      dz2     :     0.007354  d :     0.028694
      dxz     :     0.006233
      dyz     :     0.007013
      dx2y2   :     0.004117
      dxy     :     0.003978
 16 C s       :     2.630756  s :     2.630756
      pz      :     0.923495  p :     2.575150
      px      :     0.793296
      py      :     0.858359
      dz2     :     0.178241  d :     0.820635
      dxz     :     0.156188
      dyz     :     0.193057
      dx2y2   :     0.153063
      dxy     :     0.140086
      f0      :     0.011753  f :     0.048728
      f+1     :     0.007078
      f-1     :     0.008060
      f+2     :     0.004226
      f-2     :     0.008056
      f+3     :     0.004945
      f-3     :     0.004609
 17 H s       :     0.700402  s :     0.700402
      pz      :     0.060612  p :     0.265204
      px      :     0.095553
      py      :     0.109039
      dz2     :     0.003218  d :     0.028810
      dxz     :     0.003460
      dyz     :     0.005301
      dx2y2   :     0.008702
      dxy     :     0.008130
 18 H s       :     0.698588  s :     0.698588
      pz      :     0.108431  p :     0.282291
      px      :     0.081262
      py      :     0.092598
      dz2     :     0.009594  d :     0.028761
      dxz     :     0.006962
      dyz     :     0.008080
      dx2y2   :     0.002048
      dxy     :     0.002076
 19 Cls       :     5.593582  s :     5.593582
      pz      :     3.689242  p :    11.117780
      px      :     3.738171
      py      :     3.690367
      dz2     :     0.039587  d :     0.167448
      dxz     :     0.025148
      dyz     :     0.044938
      dx2y2   :     0.021572
      dxy     :     0.036203
      f0      :     0.000168  f :     0.001224
      f+1     :     0.000068
      f-1     :     0.000328
      f+2     :     0.000246
      f-2     :     0.000221
      f+3     :     0.000098
      f-3     :     0.000096
 20 C s       :     2.784448  s :     2.784448
      pz      :     1.011622  p :     2.714580
      px      :     0.875373
      py      :     0.827585
      dz2     :     0.134564  d :     0.422247
      dxz     :     0.116689
      dyz     :     0.085537
      dx2y2   :     0.039528
      dxy     :     0.045929
      f0      :     0.004989  f :     0.032551
      f+1     :     0.010228
      f-1     :     0.004390
      f+2     :     0.005006
      f-2     :     0.005861
      f+3     :     0.000977
      f-3     :     0.001099
 21 C s       :     2.782055  s :     2.782055
      pz      :     1.010264  p :     2.713540
      px      :     0.906808
      py      :     0.796468
      dz2     :     0.109989  d :     0.399835
      dxz     :     0.097935
      dyz     :     0.073147
      dx2y2   :     0.075556
      dxy     :     0.043208
      f0      :     0.004932  f :     0.033051
      f+1     :     0.010765
      f-1     :     0.004367
      f+2     :     0.005329
      f-2     :     0.005517
      f+3     :     0.000975
      f-3     :     0.001166
 22 H s       :     0.722918  s :     0.722918
      pz      :     0.158884  p :     0.356656
      px      :     0.102644
      py      :     0.095128
      dz2     :     0.007786  d :     0.028484
      dxz     :     0.008512
      dyz     :     0.006635
      dx2y2   :     0.002698
      dxy     :     0.002852
 23 H s       :     0.783253  s :     0.783253
      pz      :     0.085265  p :     0.230142
      px      :     0.071085
      py      :     0.073793
      dz2     :     0.004996  d :     0.006989
      dxz     :     0.001005
      dyz     :     0.000591
      dx2y2   :     0.000231
      dxy     :     0.000165
 24 H s       :     0.733760  s :     0.733760
      pz      :     0.122652  p :     0.316257
      px      :     0.097987
      py      :     0.095618
      dz2     :     0.009224  d :     0.028127
      dxz     :     0.008668
      dyz     :     0.005542
      dx2y2   :     0.002525
      dxy     :     0.002167
 25 H s       :     0.704873  s :     0.704873
      pz      :     0.120626  p :     0.266236
      px      :     0.086687
      py      :     0.058922
      dz2     :     0.011643  d :     0.028542
      dxz     :     0.008151
      dyz     :     0.008538
      dx2y2   :     0.000131
      dxy     :     0.000079
 26 H s       :     0.699788  s :     0.699788
      pz      :     0.069489  p :     0.268573
      px      :     0.100721
      py      :     0.098364
      dz2     :     0.004450  d :     0.028952
      dxz     :     0.004000
      dyz     :     0.006195
      dx2y2   :     0.007330
      dxy     :     0.006976


                      *****************************
                      * MAYER POPULATION ANALYSIS *
                      *****************************

  NA   - Mulliken gross atomic population
  ZA   - Total nuclear charge
  QA   - Mulliken gross atomic charge
  VA   - Mayer's total valence
  BVA  - Mayer's bonded valence
  FA   - Mayer's free valence

  ATOM       NA         ZA         QA         VA         BVA        FA
  0 Zr    12.3498    12.0000    -0.3498     6.5618     6.5618    -0.0000
  1 C      5.8980     6.0000     0.1020     3.6992     3.6992    -0.0000
  2 C      5.7830     6.0000     0.2170     3.6398     3.6398    -0.0000
  3 C      5.9451     6.0000     0.0549     3.7836     3.7836    -0.0000
  4 H      0.9395     1.0000     0.0605     0.9442     0.9442     0.0000
  5 C      5.9186     6.0000     0.0814     3.8657     3.8657     0.0000
  6 H      0.9542     1.0000     0.0458     0.9937     0.9937    -0.0000
  7 C      6.0374     6.0000    -0.0374     3.9863     3.9863    -0.0000
  8 H      0.9760     1.0000     0.0240     0.9994     0.9994     0.0000
  9 H      0.9856     1.0000     0.0144     1.0368     1.0368    -0.0000
 10 C      5.9166     6.0000     0.0834     3.7973     3.7973    -0.0000
 11 C      5.9665     6.0000     0.0335     3.8896     3.8896    -0.0000
 12 C      5.8196     6.0000     0.1804     3.6813     3.6813     0.0000
 13 H      0.9804     1.0000     0.0196     0.9451     0.9451     0.0000
 14 C      5.9491     6.0000     0.0509     3.7956     3.7956    -0.0000
 15 H      0.9725     1.0000     0.0275     1.0011     1.0011     0.0000
 16 C      6.0080     6.0000    -0.0080     3.8798     3.8798    -0.0000
 17 H      0.8729     1.0000     0.1271     0.9124     0.9124    -0.0000
 18 H      1.0312     1.0000    -0.0312     1.0871     1.0871    -0.0000
 19 Cl    17.6753    17.0000    -0.6753     0.5771     0.5771    -0.0000
 20 C      6.0759     6.0000    -0.0759     3.6945     3.6945    -0.0000
 21 C      5.9242     6.0000     0.0758     3.5094     3.5094    -0.0000
 22 H      0.9445     1.0000     0.0555     0.9820     0.9820     0.0000
 23 H      1.1303     1.0000    -0.1303     0.7092     0.7092    -0.0000
 24 H      0.9779     1.0000     0.0221     0.9381     0.9381    -0.0000
 25 H      0.9981     1.0000     0.0019     0.9756     0.9756     0.0000
 26 H      0.9697     1.0000     0.0303     0.9737     0.9737    -0.0000

  Mayer bond orders larger than 0.100000
B(  0-Zr,  1-C ) :   0.2540 B(  0-Zr,  2-C ) :   0.4116 B(  0-Zr,  3-C ) :   0.4521 
B(  0-Zr,  5-C ) :   0.4907 B(  0-Zr,  7-C ) :   0.4568 B(  0-Zr, 10-C ) :   0.4816 
B(  0-Zr, 11-C ) :   0.3138 B(  0-Zr, 12-C ) :   0.4094 B(  0-Zr, 14-C ) :   0.4820 
B(  0-Zr, 16-C ) :   0.3645 B(  0-Zr, 19-Cl) :   0.5679 B(  0-Zr, 20-C ) :   0.2496 
B(  0-Zr, 23-H ) :   1.0118 B(  1-C ,  2-C ) :   1.4166 B(  1-C ,  3-C ) :   1.3853 
B(  1-C , 23-H ) :  -0.1350 B(  1-C , 25-H ) :   0.9100 B(  2-C ,  4-H ) :   0.8402 
B(  2-C ,  5-C ) :   1.2266 B(  2-C ,  7-C ) :  -0.1247 B(  3-C ,  6-H ) :   0.9206 
B(  3-C ,  7-C ) :   1.3583 B(  5-C ,  7-C ) :   1.3618 B(  5-C ,  8-H ) :   0.8993 
B(  7-C ,  9-H ) :   0.9100 B( 10-C , 11-C ) :   1.4408 B( 10-C , 12-C ) :   1.2524 
B( 10-C , 16-C ) :  -0.1012 B( 10-C , 26-H ) :   0.8589 B( 11-C , 12-C ) :  -0.1056 
B( 11-C , 13-H ) :   0.9135 B( 11-C , 14-C ) :   1.4199 B( 12-C , 14-C ) :  -0.1119 
B( 12-C , 15-H ) :   0.8774 B( 12-C , 16-C ) :   1.3305 B( 14-C , 16-C ) :   1.3905 
B( 14-C , 17-H ) :   0.8802 B( 14-C , 19-Cl) :  -0.1321 B( 16-C , 18-H ) :   0.9265 
B( 18-H , 19-Cl) :   0.1103 B( 20-C , 21-C ) :   2.5327 B( 20-C , 22-H ) :   1.0551 
B( 20-C , 24-H ) :  -0.1434 B( 21-C , 24-H ) :   1.1318 

-------
TIMINGS
-------

Total SCF time: 0 days 0 hours 1 min 22 sec 

Total time                  ....      82.992 sec
Sum of individual times     ....      82.096 sec  ( 98.9%)

Fock matrix formation       ....      72.655 sec  ( 87.5%)
  XC integration            ....       8.936 sec  ( 12.3% of F)
    Basis function eval.    ....       1.518 sec  ( 17.0% of XC)
    Density eval.           ....       2.978 sec  ( 33.3% of XC)
    XC-Functional eval.     ....       0.077 sec  (  0.9% of XC)
    XC-Potential eval.      ....       3.509 sec  ( 39.3% of XC)
Diagonalization             ....       3.124 sec  (  3.8%)
Density matrix formation    ....       0.144 sec  (  0.2%)
Population analysis         ....       0.128 sec  (  0.2%)
Initial guess               ....       3.082 sec  (  3.7%)
Orbital Transformation      ....       0.000 sec  (  0.0%)
Orbital Orthonormalization  ....       0.000 sec  (  0.0%)
DIIS solution               ....       1.977 sec  (  2.4%)
Grid generation             ....       0.985 sec  (  1.2%)


           ************************************************************
           *        Program running with 24 parallel MPI-processes    *
           *              working on a common directory               *
           ************************************************************

------------------------------------------------------------------------------
                                ORCA  MP2 
------------------------------------------------------------------------------

Freezing NCore=34 chemical core electrons

-------------
RI-MP2 ENERGY
-------------
Dimension of the basis                    ...  772
Memory devoted to MP2                     ... 5000 MB   
Data format for buffers                   ... DOUBLE
Compression type for matrix containers    ... UNCOMPRESSED
Scaling for aa/bb pairs                   ...   4.000e-01
Scaling for ab pairs                      ...   4.700e-01
Overall scaling of the MP2 energy         ...   1.000e+00
Calculating two index integrals           ... done (    0.027 sec)
Cholesky decomposition of V**-1           ... done (    0.359 sec)

-----------------
RI-TRANSFORMATION (AUX index driven)
-----------------

Dimension of the orbital-basis         ... 772
Dimension of the aux-basis             ... 1926
Transformation of internal/external MOs...   17-  56 to   57- 771
Number Format for Storage              ... Double (8 Byte)
Integral mode                          ... Direct

First Phase: integral generation and transformation of MO indices
  Aux angular momentum 0               ... done (    0.150 sec)
  Aux angular momentum 1               ... done (    0.289 sec)
  Aux angular momentum 2               ... done (    0.379 sec)
  Aux angular momentum 3               ... done (    0.307 sec)
  Aux angular momentum 4               ... done (    0.122 sec)
  Aux angular momentum 5               ... done (    0.152 sec)
  Aux angular momentum 6               ... done (    0.195 sec)
Closing buffer VIA ( 0.41 GB; CompressionRatio= 1.00)
  Phase 1 completed in     1.704 sec
Second Phase: sorting and transformation of aux index

IA-Transformation
Memory available                       ... 4924 MB 
Max. # MO pairs treated in a batch     ... 2    
# of internal orbitals                 ... 40
# batches for internal orbitals        ... 1
Closing buffer IAV ( 0.02 GB; CompressionRatio= 1.00)
(ia|v) transformation done in     0.333 sec

  Phase 2 completed in     0.811 sec
RI-Integral transformation completed in     2.535 sec
Opening buffers                              ... done

Starting loop over batches of integrals:

Operator 0  - window                       ... ( 17- 56)x( 57-771)
Operator 0  - Memory available             ...  5000 MB
Operator 0  - Memory needed per MO         ...  10.5 MB
Operator 0  - Number of orbitals per batch ... 2
Operator 0  - Number of batches            ... 1

OPERATOR  0   PASS   0:  MOs    17 ...   18 +   19 ...   20 +   21 ...   22 +   23 ...   24
                            +   25 ...   26 +   27 ...   28 +   29 ...   30 +   31 ...   32
                            +   33 ...   34 +   35 ...   36 +   37 ...   38 +   39 ...   40
                            +   41 ...   42 +   43 ...   44 +   45 ...   46 +   47 ...   48
                            +   49 ...   50 +   51 ...   52 +   53 ...   54 +   55 ...   56
  Reading integrals       ... ok
Time spent in pair loops =     0.180 sec
Deleting buffer (Ka|jb)[aa] ...done

-----------------------------------------------
 RI-MP2 CORRELATION ENERGY:     -1.298477016 Eh
-----------------------------------------------


-------
TIMINGS
-------

Total time                :    6.265 sec
Integral trafo            :    2.547 sec ( 40.6%)
I/O of integrals          :    0.028 sec (  0.4%)
K(i,j) Operators          :    0.108 sec (  1.7%)
T(i,j) pair energies      :    0.022 sec (  0.3%)
V-calculation             :    0.027 sec (  0.4%)
V**(-1/2)                 :    0.359 sec (  5.7%)
Gamma(ia|P)               :    0.000 sec (  0.0%)
Gamma-Trafo               :    0.000 sec (  0.0%)
D(virtual)                :    0.000 sec (  0.0%)
D(internal)               :    0.000 sec (  0.0%)
W(virtual)                :    0.000 sec (  0.0%)
W(internal)               :    0.000 sec (  0.0%)
L(virtual)                :    0.000 sec (  0.0%)
L(internal)               :    0.000 sec (  0.0%)
G(D)                      :    0.000 sec (  0.0%)
G(Z)                      :    0.000 sec (  0.0%)
Z-Vector Solution         :    0.000 sec (  0.0%)
Z-Vector Solution         :    0.000 sec (  0.0%)
3-Index Derivative 
+ Separable RIJ part      :    0.000 sec (  0.0%)
2-Index Derivative 
+ Separable RIJ part      :    0.000 sec (  0.0%)
Separable Gradient (X)    :    0.000 sec (  0.0%)


---------------------------------------
MP2 TOTAL ENERGY:     -971.649232809 Eh
---------------------------------------


-------------------------------------------------------------------------------
                          DFT DISPERSION CORRECTION                            
                                                                               
                              DFTD3 V3.1  Rev 1                                
                          USING Becke-Johnson damping                          
-------------------------------------------------------------------------------
The DSD-BLYP/2013 functional is recognized
Active option DFTDOPT                   ...         4   

molecular C6(AA) [au] = 11357.390558 


            DFT-D V3
 parameters
 s6 scaling factor         :     0.5700 
 a1 scaling factor         :     0.0000 
 s8 scaling factor         :     0.0000 
 a2 scaling factor         :     5.4000 
 ad hoc parameters k1-k3   :    16.0000     1.3333    -4.0000 

 Edisp/kcal,au: -28.666691392943  -0.045683275743 
 E6   /kcal   : -28.666691393 
 E8   /kcal   :  -0.000000000 
 % E8         :   0.000000000 

-------------------------   ----------------
Dispersion correction           -0.045683276
-------------------------   ----------------


-------------------------   --------------------
FINAL SINGLE POINT ENERGY      -971.694916085168
-------------------------   --------------------


                            ***************************************
                            *     ORCA property calculations      *
                            ***************************************


  WARNING: The energy has been calculated at the MP2 level but the densities
           used in the property calculations are still SCF densities
           MP2 response densities have not been calculated 
           use %mp2 Density relaxed end
           or  %mp2 Density unrelaxed end

                                    ---------------------
                                    Active property flags
                                    ---------------------
   (+) Dipole Moment


------------------------------------------------------------------------------
                       ORCA ELECTRIC PROPERTIES CALCULATION
------------------------------------------------------------------------------

Dipole Moment Calculation                       ... on
Quadrupole Moment Calculation                   ... off
Polarizability Calculation                      ... off
GBWName                                         ... TMB01_T1.gbw
Electron density file                           ... TMB01_T1.scfp
The origin for moment calculation is the CENTER OF MASS  = (-0.006447,  0.038225 -0.041973)

-------------
DIPOLE MOMENT
-------------
                                X             Y             Z
Electronic contribution:      0.48646       2.09555       2.56150
Nuclear contribution   :     -0.31433      -2.93943      -1.59819
                        -----------------------------------------
Total Dipole Moment    :      0.17213      -0.84389       0.96331
                        -----------------------------------------
Magnitude (a.u.)       :      1.29219
Magnitude (Debye)      :      3.28448



--------------------
Rotational spectrum 
--------------------
 
Rotational constants in cm-1:     0.021527     0.019953     0.016159 
Rotational constants in MHz :   645.375909   598.178243   484.447118 

 Dipole components along the rotational axes: 
x,y,z [a.u.] :     0.163400    -0.894429     0.918174 
x,y,z [Debye]:     0.415331    -2.273457     2.333812 

 

Timings for individual modules:

Sum of individual times         ...       93.992 sec (=   1.567 min)
GTO integral calculation        ...        3.716 sec (=   0.062 min)   4.0 %
SCF iterations                  ...       83.374 sec (=   1.390 min)  88.7 %
MP2 module                      ...        6.903 sec (=   0.115 min)   7.3 %
                             ****ORCA TERMINATED NORMALLY****
TOTAL RUN TIME: 0 days 0 hours 1 minutes 34 seconds 660 msec
