
                                 *****************
                                 * O   R   C   A *
                                 *****************

           --- An Ab Initio, DFT and Semiempirical electronic structure package ---

                  #######################################################
                  #                        -***-                        #
                  #          Department of theory and spectroscopy      #
                  #               Directorship: Frank Neese             #
                  #        Max Planck Institute fuer Kohlenforschung    #
                  #                Kaiser Wilhelm Platz 1               #
                  #                 D-45470 Muelheim/Ruhr               #
                  #                      Germany                        #
                  #                                                     #
                  #                  All rights reserved                #
                  #                        -***-                        #
                  #######################################################


                         Program Version 4.2.0 -  RELEASE  -


 With contributions from (in alphabetic order):
   Daniel Aravena         : Magnetic Suceptibility
   Michael Atanasov       : Ab Initio Ligand Field Theory (pilot matlab implementation)
   Alexander A. Auer      : GIAO ZORA, VPT2
   Ute Becker             : Parallelization
   Giovanni Bistoni       : ED, misc. LED, open-shell LED, HFLED
   Martin Brehm           : Molecular dynamics
   Dmytro Bykov           : SCF Hessian
   Vijay G. Chilkuri      : MRCI spin determinant printing, contributions to CSF-ICE
   Dipayan Datta          : RHF DLPNO-CCSD density
   Achintya Kumar Dutta   : EOM-CC, STEOM-CC
   Dmitry Ganyushin       : Spin-Orbit,Spin-Spin,Magnetic field MRCI
   Miquel Garcia          : C-PCM Hessian, Gaussian charge scheme
   Yang Guo               : DLPNO-NEVPT2, CIM, IAO-localization
   Andreas Hansen         : Spin unrestricted coupled pair/coupled cluster methods
   Benjamin Helmich-Paris : CASSCF linear response (MC-RPA)
   Lee Huntington         : MR-EOM, pCC
   Robert Izsak           : Overlap fitted RIJCOSX, COSX-SCS-MP3, EOM
   Christian Kollmar      : KDIIS, OOCD, Brueckner-CCSD(T), CCSD density
   Simone Kossmann        : Meta GGA functionals, TD-DFT gradient, OOMP2, MP2 Hessian
   Martin Krupicka        : AUTO-CI
   Lucas Lang             : DCDCAS
   Dagmar Lenk            : GEPOL surface, SMD
   Dimitrios Liakos       : Extrapolation schemes; Compound Job, initial MDCI parallelization
   Dimitrios Manganas     : Further ROCIS development; embedding schemes
   Dimitrios Pantazis     : SARC Basis sets
   Taras Petrenko         : DFT Hessian,TD-DFT gradient, ASA, ECA, R-Raman, ABS, FL, XAS/XES, NRVS
   Peter Pinski           : DLPNO-MP2, DLPNO-MP2 Gradient
   Christoph Reimann      : Effective Core Potentials
   Marius Retegan         : Local ZFS, SOC
   Christoph Riplinger    : Optimizer, TS searches, QM/MM, DLPNO-CCSD(T), (RO)-DLPNO pert. Triples
   Tobias Risthaus        : Range-separated hybrids, TD-DFT gradient, RPA, STAB
   Michael Roemelt        : Original ROCIS implementation
   Masaaki Saitow         : Open-shell DLPNO-CCSD energy and density
   Barbara Sandhoefer     : DKH picture change effects
   Avijit Sen             : IP-ROCIS
   Kantharuban Sivalingam : CASSCF convergence, NEVPT2, FIC-MRCI
   Bernardo de Souza      : ESD, SOC TD-DFT
   Georgi Stoychev        : AutoAux, RI-MP2 NMR
   Willem Van den Heuvel  : Paramagnetic NMR
   Boris Wezisla          : Elementary symmetry handling
   Frank Wennmohs         : Technical directorship


 We gratefully acknowledge several colleagues who have allowed us to
 interface, adapt or use parts of their codes:
   Stefan Grimme, W. Hujo, H. Kruse,             : VdW corrections, initial TS optimization,
                  C. Bannwarth                     DFT functionals, gCP, sTDA/sTD-DF
   Ed Valeev, F. Pavosevic, A. Kumar             : LibInt (2-el integral package), F12 methods
   Garnet Chan, S. Sharma, J. Yang, R. Olivares  : DMRG
   Ulf Ekstrom                                   : XCFun DFT Library
   Mihaly Kallay                                 : mrcc  (arbitrary order and MRCC methods)
   Andreas Klamt, Michael Diedenhofen            : otool_cosmo (COSMO solvation model)
   Jiri Pittner, Ondrej Demel                    : Mk-CCSD
   Frank Weinhold                                : gennbo (NPA and NBO analysis)
   Christopher J. Cramer and Donald G. Truhlar   : smd solvation model
   Lars Goerigk                                  : TD-DFT with DH, B97 family of functionals
   V. Asgeirsson, H. Jonsson                     : NEB implementation
   FAccTs GmbH                                   : IRC, NEB, NEB-TS, Multilevel, MM, QM/MM, CI optimization
   S Lehtola, MJT Oliveira, MAL Marques          : LibXC Library


 Your calculation uses the libint2 library for the computation of 2-el integrals
 For citations please refer to: http://libint.valeyev.net

 Your ORCA version has been built with support for libXC version: 4.2.3
 For citations please refer to: https://tddft.org/programs/libxc/

 This ORCA versions uses:
   CBLAS   interface :  Fast vector & matrix operations
   LAPACKE interface :  Fast linear algebra routines
   SCALAPACK package :  Parallel linear algebra routines


Your calculation utilizes the atom-pairwise dispersion correction
with the Becke-Johnson damping scheme (D3BJ)
Cite in your paper:
S.Grimme, S.Ehrlich, L.Goerigk, J Comput Chem, (2011), 32, 1456–1465 
S.Grimme, J.Antony, S.Ehrlich and H.Krieg, J.Chem.Phys., 132, (2010), 154104 
   

----- Orbital basis set information -----
Your calculation utilizes the basis: def2-TZVPPD
   F. Weigend and R. Ahlrichs, Phys. Chem. Chem. Phys. 7, 3297 (2005).
   D. Rappoport and F. Furche, J. Chem. Phys. 133 134105 (2010).

----- AuxC basis set information -----
Your calculation utilizes the auxiliary basis: def2-TZVPPD/C
   A. Hellweg, C. Hattig, S. Hofener and W. Klopper, Theor. Chem. Acc. 117, 587 (2007).

----- AuxJK basis set information -----
Your calculation utilizes the auxiliary basis: def2/JK
   H-Ba, Hf-Rn: F. Weigend, J. Comput. Chem. 29, 167 (2008).

cite the ECPs for W  [Def2-ECP] as follows:
Ce-Yb(ecp-28): M. Dolg, H. Stoll, H.Preuss, J. Chem. Phys., 1989, 90, 1730-1734.
Y-Cd(ecp-28), Hf-Hg(ecp-46): D. Andrae,U. Haeussermann, M. Dolg, H. Stoll, H. Preuss, Theor. Chim. Acta, 1990, 77, 123-141.
In-Sb(ecp-28), Tl-Bi(ecp-46): B. Metz, H. Stoll, M. Dolg, J. Chem. Phys., 2000, 113, 2563-2569.
Te-Xe(ecp-28), Po-Rn(ecp-46): K. A. Peterson, D. Figgen, E. Goll, H. Stoll, M. Dolg, J. Chem. Phys., 2003, 119, 11113-11123.
Rb(ecp-28), Cs(ecp-46): T. Leininger, A. Nicklass, W. Kuechle, H. Stoll, M. Dolg, A. Bergner, Chem. Phys. Lett., 1996, 255, 274-280.
Sr(ecp-28), Ba(ecp-46): M. Kaupp, P. V. Schleyer, H. Stoll and H. Preuss, J. Chem. Phys., 1991, 94, 1360-1366.
La(ecp-46): M. Dolg, H. Stoll, A. Savin, H. Preuss, Theor. Chim. Acta, 1989, 75, 173-194.
Lu(ecp-28): X. Cao, M. Dolg, J. Chem. Phys., 2001, 115, 7348-7355.

ECP parameters for W  [Def2-ECP] have been obtained from:
TURBOMOLE (7.0.2)

================================================================================
                                        WARNINGS
                       Please study these warnings very carefully!
================================================================================


WARNING: No MP2 level density has been requested!
         To caclulate MP2 level properties use
         %mp2 Density relaxed end
         or
         %mp2 Density unrelaxed end
         Otherwise for double-hybrid DFT only the energy is correct!

WARNING: There are different parametrizations of Gershom Martin's DSD-DFs
         for use with and without D3(BJ)!
         You are using the D3(BJ) parametrized version,
         consistent with the 2013 article (S. Kozuch and J. M. L. Martin, JCC 2013, 34, 2327)

WARNING: The frozen-core approximation is turned on by default for 
         the MP2 part of double-hybrid DFT.

INFO   : the flag for use of LIBINT has been found!

================================================================================
                                       INPUT FILE
================================================================================
NAME = TMB06_C1.in
|  1> #
|  2> # TMB06_C1 ri-DSD-BLYP/2013-D3BJ/Def2-TZVPPD
|  3> #
|  4> ! rijk ri-dsd-blyp/2013 d3bj def2-tzvppd def2/jk def2-tzvppd/c grid4 nofinalgrid
|  5> 
|  6> *xyz -2 1
|  7> C       -4.922177    0.231539    2.107663 
|  8> C       -4.446966   -0.260950    0.727306 
|  9> O       -4.786048   -1.445661    0.381045 
| 10> O       -3.774664    0.534657    0.034272 
| 11> C        2.853834    2.539483    0.111094 
| 12> S        1.699014    2.002949   -1.213407 
| 13> C        2.621388   -0.654255    2.558361 
| 14> S        1.079319    0.109893    2.243750 
| 15> C        3.475179   -0.966107    1.545638 
| 16> S        3.017258   -0.732048   -0.112289 
| 17> C       -0.719852   -2.060810   -2.434513 
| 18> S        0.476784   -0.759924   -2.482057 
| 19> C       -1.165423   -2.576996   -1.263023 
| 20> S       -0.426778   -2.115489    0.280596 
| 21> W        0.581769    0.074169   -0.056710 
| 22> O       -3.686516    3.100880   -0.970074 
| 23> C       -0.958024    1.126222    0.768552 
| 24> C       -1.050846    1.201510   -0.527136 
| 25> H       -4.399031   -0.338057    2.886550 
| 26> H       -4.651123    1.285347    2.215183 
| 27> H        2.286624    2.922259    0.966567 
| 28> H        3.439558    1.684807    0.443645 
| 29> H       -3.719098    2.271105   -0.448699 
| 30> H       -4.432659    3.004669   -1.574445 
| 31> H       -1.423366    1.443209    1.691261 
| 32> H       -1.628538    1.662411   -1.315772 
| 33> H       -1.080680   -2.444086   -3.386693 
| 34> H       -2.006521   -3.265324   -1.212989 
| 35> H        3.558044    3.288012   -0.266819 
| 36> H        2.852091   -0.869929    3.599516 
| 37> H        4.480661   -1.317935    1.766923 
| 38> H       -6.001258    0.102048    2.241238 
| 39> *
| 40> 
| 41> %maxcore 5000
| 42> 
| 43> %pal
| 44> nprocs = 24
| 45> end
| 46> 
| 47> 
| 48>                          ****END OF INPUT****
================================================================================

                       ****************************
                       * Single Point Calculation *
                       ****************************

---------------------------------
CARTESIAN COORDINATES (ANGSTROEM)
---------------------------------
  C     -4.922177    0.231539    2.107663
  C     -4.446966   -0.260950    0.727306
  O     -4.786048   -1.445661    0.381045
  O     -3.774664    0.534657    0.034272
  C      2.853834    2.539483    0.111094
  S      1.699014    2.002949   -1.213407
  C      2.621388   -0.654255    2.558361
  S      1.079319    0.109893    2.243750
  C      3.475179   -0.966107    1.545638
  S      3.017258   -0.732048   -0.112289
  C     -0.719852   -2.060810   -2.434513
  S      0.476784   -0.759924   -2.482057
  C     -1.165423   -2.576996   -1.263023
  S     -0.426778   -2.115489    0.280596
  W      0.581769    0.074169   -0.056710
  O     -3.686516    3.100880   -0.970074
  C     -0.958024    1.126222    0.768552
  C     -1.050846    1.201510   -0.527136
  H     -4.399031   -0.338057    2.886550
  H     -4.651123    1.285347    2.215183
  H      2.286624    2.922259    0.966567
  H      3.439558    1.684807    0.443645
  H     -3.719098    2.271105   -0.448699
  H     -4.432659    3.004669   -1.574445
  H     -1.423366    1.443209    1.691261
  H     -1.628538    1.662411   -1.315772
  H     -1.080680   -2.444086   -3.386693
  H     -2.006521   -3.265324   -1.212989
  H      3.558044    3.288012   -0.266819
  H      2.852091   -0.869929    3.599516
  H      4.480661   -1.317935    1.766923
  H     -6.001258    0.102048    2.241238

----------------------------
CARTESIAN COORDINATES (A.U.)
----------------------------
  NO LB      ZA    FRAG     MASS         X           Y           Z
   0 C     6.0000    0    12.011   -9.301567    0.437545    3.982906
   1 C     6.0000    0    12.011   -8.403548   -0.493124    1.374409
   2 O     8.0000    0    15.999   -9.044320   -2.731903    0.720071
   3 O     8.0000    0    15.999   -7.133081    1.010355    0.064765
   4 C     6.0000    0    12.011    5.392965    4.798927    0.209937
   5 S    16.0000    0    32.060    3.210671    3.785025   -2.293007
   6 C     6.0000    0    12.011    4.953705   -1.236363    4.834602
   7 S    16.0000    0    32.060    2.039617    0.207668    4.240073
   8 C     6.0000    0    12.011    6.567137   -1.825678    2.920833
   9 S    16.0000    0    32.060    5.701791   -1.383370   -0.212195
  10 C     6.0000    0    12.011   -1.360323   -3.894367   -4.600563
  11 S    16.0000    0    32.060    0.900991   -1.436048   -4.690408
  12 C     6.0000    0    12.011   -2.202330   -4.869817   -2.386768
  13 S    16.0000    0    32.060   -0.806494   -3.997695    0.530250
  14 W    14.0000*   0   183.850    1.099384    0.140159   -0.107166
  15 O     8.0000    0    15.999   -6.966506    5.859814   -1.833174
  16 C     6.0000    0    12.011   -1.810403    2.128251    1.452353
  17 C     6.0000    0    12.011   -1.985811    2.270525   -0.996143
  18 H     1.0000    0     1.008   -8.312964   -0.638835    5.454789
  19 H     1.0000    0     1.008   -8.789349    2.428954    4.186089
  20 H     1.0000    0     1.008    4.321093    5.522269    1.826547
  21 H     1.0000    0     1.008    6.499823    3.183824    0.838368
  22 H     1.0000    0     1.008   -7.028077    4.291766   -0.847918
  23 H     1.0000    0     1.008   -8.376512    5.678002   -2.975270
  24 H     1.0000    0     1.008   -2.689772    2.727270    3.196020
  25 H     1.0000    0     1.008   -3.077491    3.141502   -2.486449
  26 H     1.0000    0     1.008   -2.042189   -4.618653   -6.399922
  27 H     1.0000    0     1.008   -3.791775   -6.170568   -2.292217
  28 H     1.0000    0     1.008    6.723729    6.213442   -0.504215
  29 H     1.0000    0     1.008    5.389671   -1.643928    6.802099
  30 H     1.0000    0     1.008    8.467222   -2.490536    3.339001
  31 H     1.0000    0     1.008  -11.340734    0.192843    4.235326
* core charge reduced due to ECP

--------------------------------
INTERNAL COORDINATES (ANGSTROEM)
--------------------------------
 C      0   0   0     0.000000000000     0.00000000     0.00000000
 C      1   0   0     1.540699956867     0.00000000     0.00000000
 O      2   1   0     1.280005248570   117.16213974     0.00000000
 O      2   1   3     1.251110148152   117.30688354   179.28267742
 C      4   2   1     6.925475770369   133.80978955    78.77311575
 S      5   4   2     1.837329819210    46.04360810   133.31629462
 C      5   4   2     4.030274100461    73.86716535    11.65776273
 S      7   5   4     1.749536809554    66.14195476   341.17940242
 C      7   5   4     1.360815423308    72.15262809   118.81709881
 S      9   7   5     1.735856329035   120.95607967   309.02147794
 C     10   9   7     4.596120528328   131.15430498   309.00486906
 S     11  10   9     1.768191882525    41.46285484   151.83527878
 C     11  10   9     1.355496338150    86.60049889     2.19974089
 S     13  11  10     1.772383921230   121.10115201    15.52741348
 W      8   7   5     2.353921922723   110.81905971    60.15176220
 O      4   2   1     2.757169099520   144.17815035   309.85580358
 C     15   8   7     2.039322281127    75.89395834   183.64574668
 C     17  15   8     1.301188533600    71.38231401   171.73572415
 H      1   2   3     1.097627577688   108.83684437    68.43722650
 H      1   2   3     1.093408488251   108.64570791   186.03488147
 H      5   4   2     1.095481037720    67.30926660   289.43759119
 H      5   4   2     1.088179138172   106.92990448    32.67789564
 H     16   4   2     0.980520284326    10.76305362    60.40399472
 H     16   4   2     0.965013076912    96.35107007   292.40045377
 H     17  15   8     1.080932853518   145.26276646   352.11771648
 H     18  17  15     1.080788841153   142.12999961   184.02367776
 H     11  10   9     1.088000041434   144.45784740   218.95026253
 H     13  11  10     1.088000313577   122.32924108   193.56799345
 H      5   4   2     1.095000284708   144.05653371   193.99803203
 H      7   5   4     1.087999486447   136.54641675   237.20052848
 H      9   7   5     1.088000020741   120.17020627   125.72280935
 H      1   2   3     1.095000458569   112.05176516   308.10671353

---------------------------
INTERNAL COORDINATES (A.U.)
---------------------------
 C      0   0   0     0.000000000000     0.00000000     0.00000000
 C      1   0   0     2.911500973024     0.00000000     0.00000000
 O      2   1   0     2.418859369779   117.16213974     0.00000000
 O      2   1   3     2.364255543377   117.30688354   179.28267742
 C      4   2   1    13.087252553104   133.80978955    78.77311575
 S      5   4   2     3.472050175993    46.04360810   133.31629462
 C      5   4   2     7.616114294508    73.86716535    11.65776273
 S      7   5   4     3.306145431272    66.14195476   341.17940242
 C      7   5   4     2.571568468869    72.15262809   118.81709881
 S      9   7   5     3.280293069710   120.95607967   309.02147794
 C     10   9   7     8.685409077034   131.15430498   309.00486906
 S     11  10   9     3.341398410195    41.46285484   151.83527878
 C     11  10   9     2.561516854636    86.60049889     2.19974089
 S     13  11  10     3.349320215290   121.10115201    15.52741348
 W      8   7   5     4.448267774580   110.81905971    60.15176220
 O      4   2   1     5.210294503003   144.17815035   309.85580358
 C     15   8   7     3.853760610134    75.89395834   183.64574668
 C     17  15   8     2.458889977103    71.38231401   171.73572415
 H      1   2   3     2.074215518869   108.83684437    68.43722650
 H      1   2   3     2.066242595300   108.64570791   186.03488147
 H      5   4   2     2.070159146195    67.30926660   289.43759119
 H      5   4   2     2.056360555792   106.92990448    32.67789564
 H     16   4   2     1.852914806130    10.76305362    60.40399472
 H     16   4   2     1.823610431016    96.35107007   292.40045377
 H     17  15   8     2.042667062307   145.26276646   352.11771648
 H     18  17  15     2.042394918377   142.12999961   184.02367776
 H     11  10   9     2.056022112005   144.45784740   218.95026253
 H     13  11  10     2.056022626281   122.32924108   193.56799345
 H      5   4   2     2.069250654663   144.05653371   193.99803203
 H      7   5   4     2.056021063233   136.54641675   237.20052848
 H      9   7   5     2.056022072902   120.17020627   125.72280935
 H      1   2   3     2.069250983214   112.05176516   308.10671353

---------------------
BASIS SET INFORMATION
---------------------
There are 5 groups of distinct atoms

 Group   1 Type C   : 12s6p3d1f contracted to 6s3p3d1f pattern {621111/411/111/1}
 Group   2 Type O   : 12s7p3d1f contracted to 6s4p3d1f pattern {621111/4111/111/1}
 Group   3 Type S   : 15s10p4d1f contracted to 6s6p4d1f pattern {732111/511111/1111/1}
 Group   4 Type W   : 8s8p6d2f1g contracted to 6s5p3d2f1g pattern {311111/41111/411/11/1}
 Group   5 Type H   : 5s3p1d contracted to 3s3p1d pattern {311/111/1}

Atom   0C    basis set group =>   1
Atom   1C    basis set group =>   1
Atom   2O    basis set group =>   2
Atom   3O    basis set group =>   2
Atom   4C    basis set group =>   1
Atom   5S    basis set group =>   3
Atom   6C    basis set group =>   1
Atom   7S    basis set group =>   3
Atom   8C    basis set group =>   1
Atom   9S    basis set group =>   3
Atom  10C    basis set group =>   1
Atom  11S    basis set group =>   3
Atom  12C    basis set group =>   1
Atom  13S    basis set group =>   3
Atom  14W    basis set group =>   4
Atom  15O    basis set group =>   2
Atom  16C    basis set group =>   1
Atom  17C    basis set group =>   1
Atom  18H    basis set group =>   5
Atom  19H    basis set group =>   5
Atom  20H    basis set group =>   5
Atom  21H    basis set group =>   5
Atom  22H    basis set group =>   5
Atom  23H    basis set group =>   5
Atom  24H    basis set group =>   5
Atom  25H    basis set group =>   5
Atom  26H    basis set group =>   5
Atom  27H    basis set group =>   5
Atom  28H    basis set group =>   5
Atom  29H    basis set group =>   5
Atom  30H    basis set group =>   5
Atom  31H    basis set group =>   5
---------------------------------
AUXILIARY/C BASIS SET INFORMATION
---------------------------------
There are 5 groups of distinct atoms

 Group   1 Type C   : 9s7p6d4f1g contracted to 9s7p5d4f1g pattern {111111111/1111111/21111/1111/1}
 Group   2 Type O   : 9s7p6d4f1g contracted to 9s7p5d4f1g pattern {111111111/1111111/21111/1111/1}
 Group   3 Type S   : 12s9p8d6f2g contracted to 12s9p8d6f2g pattern {111111111111/111111111/11111111/111111/11}
 Group   4 Type W   : 9s9p8d5f4g3h1i contracted to 9s9p8d5f4g3h1i pattern {111111111/111111111/11111111/11111/1111/111/1}
 Group   5 Type H   : 5s4p3d1f contracted to 5s4p3d1f pattern {11111/1111/111/1}

Atom   0C    basis set group =>   1
Atom   1C    basis set group =>   1
Atom   2O    basis set group =>   2
Atom   3O    basis set group =>   2
Atom   4C    basis set group =>   1
Atom   5S    basis set group =>   3
Atom   6C    basis set group =>   1
Atom   7S    basis set group =>   3
Atom   8C    basis set group =>   1
Atom   9S    basis set group =>   3
Atom  10C    basis set group =>   1
Atom  11S    basis set group =>   3
Atom  12C    basis set group =>   1
Atom  13S    basis set group =>   3
Atom  14W    basis set group =>   4
Atom  15O    basis set group =>   2
Atom  16C    basis set group =>   1
Atom  17C    basis set group =>   1
Atom  18H    basis set group =>   5
Atom  19H    basis set group =>   5
Atom  20H    basis set group =>   5
Atom  21H    basis set group =>   5
Atom  22H    basis set group =>   5
Atom  23H    basis set group =>   5
Atom  24H    basis set group =>   5
Atom  25H    basis set group =>   5
Atom  26H    basis set group =>   5
Atom  27H    basis set group =>   5
Atom  28H    basis set group =>   5
Atom  29H    basis set group =>   5
Atom  30H    basis set group =>   5
Atom  31H    basis set group =>   5
----------------------------------
AUXILIARY/JK BASIS SET INFORMATION
----------------------------------
There are 5 groups of distinct atoms

 Group   1 Type C   : 14s10p6d2f1g contracted to 10s8p5d1f1g pattern {5111111111/31111111/21111/2/1}
 Group   2 Type O   : 14s10p6d2f1g contracted to 10s8p4d2f1g pattern {5111111111/31111111/3111/11/1}
 Group   3 Type S   : 16s12p10d4f1g contracted to 13s11p9d4f1g pattern {4111111111111/21111111111/211111111/1111/1}
 Group   4 Type W   : 13s12p11d9f5g3h2i contracted to 11s9p9d7f4g3h2i pattern {31111111111/411111111/311111111/3111111/2111/111/11}
 Group   5 Type H   : 4s2p2d contracted to 2s2p2d pattern {31/11/11}

Atom   0C    basis set group =>   1
Atom   1C    basis set group =>   1
Atom   2O    basis set group =>   2
Atom   3O    basis set group =>   2
Atom   4C    basis set group =>   1
Atom   5S    basis set group =>   3
Atom   6C    basis set group =>   1
Atom   7S    basis set group =>   3
Atom   8C    basis set group =>   1
Atom   9S    basis set group =>   3
Atom  10C    basis set group =>   1
Atom  11S    basis set group =>   3
Atom  12C    basis set group =>   1
Atom  13S    basis set group =>   3
Atom  14W    basis set group =>   4
Atom  15O    basis set group =>   2
Atom  16C    basis set group =>   1
Atom  17C    basis set group =>   1
Atom  18H    basis set group =>   5
Atom  19H    basis set group =>   5
Atom  20H    basis set group =>   5
Atom  21H    basis set group =>   5
Atom  22H    basis set group =>   5
Atom  23H    basis set group =>   5
Atom  24H    basis set group =>   5
Atom  25H    basis set group =>   5
Atom  26H    basis set group =>   5
Atom  27H    basis set group =>   5
Atom  28H    basis set group =>   5
Atom  29H    basis set group =>   5
Atom  30H    basis set group =>   5
Atom  31H    basis set group =>   5
-------------------------
ECP PARAMETER INFORMATION
-------------------------

 Group 1, Type W  ECP Def2-ECP (replacing 60 core electrons, lmax=3)

Atom  14W    ECP group =>   1



           ************************************************************
           *        Program running with 24 parallel MPI-processes    *
           *              working on a common directory               *
           ************************************************************
------------------------------------------------------------------------------
                           ORCA GTO INTEGRAL CALCULATION
                           -- RI-GTO INTEGRALS CHOSEN --
------------------------------------------------------------------------------

                         BASIS SET STATISTICS AND STARTUP INFO

Gaussian basis set:
 # of primitive gaussian shells          ...  568
 # of primitive gaussian functions       ... 1344
 # of contracted shells                  ...  359
 # of contracted basis functions         ... 1005
 Highest angular momentum                ...    4
 Maximum contraction depth               ...    7
Auxiliary gaussian basis set:
 # of primitive gaussian shells          ...  778
 # of primitive gaussian functions       ... 2410
 # of contracted shells                  ...  619
 # of contracted aux-basis functions     ... 2025
 Highest angular momentum                ...    6
 Maximum contraction depth               ...    5
Ratio of auxiliary to basis functions    ...  2.01
Integral package used                  ... LIBINT
 One Electron integrals                  
   ECP integrals                         ... done
 Ordering auxiliary basis shells         ... done
 Integral threshhold             Thresh  ...  1.000e-10
 Primitive cut-off               TCut    ...  1.000e-11
 Pre-screening matrix                    ... done
 Shell pair data                         ... 
 Ordering of the shell pairs             ... done (   0.009 sec) 48861 of 64620 pairs
 Determination of significant pairs      ... done (   0.000 sec)
 Creation of shell pair data             ... done (   0.005 sec)
 Storage of shell pair data              ... done (   0.011 sec)
 Shell pair data done in (   0.025 sec)
 Computing two index integrals           ... done
 Cholesky decomposition of the V-matrix  ... done


Timings:
 Total evaluation time                   ...   5.047 sec (  0.084 min)
 One electron matrix time                ...   4.115 sec (  0.069 min) = 81.5%
 Schwartz matrix evaluation time         ...   0.523 sec (  0.009 min) = 10.4%
 Two index repulsion integral time       ...   0.172 sec (  0.003 min) =  3.4%
 Cholesky decomposition of V             ...   0.182 sec (  0.003 min) =  3.6%
 Three index repulsion integral time     ...   0.000 sec (  0.000 min) =  0.0%



           ************************************************************
           *        Program running with 24 parallel MPI-processes    *
           *              working on a common directory               *
           ************************************************************
-------------------------------------------------------------------------------
                                 ORCA SCF
-------------------------------------------------------------------------------

------------
SCF SETTINGS
------------
Hamiltonian:
 Density Functional     Method          .... DFT(GTOs)
 Exchange Functional    Exchange        .... B88
   X-Alpha parameter    XAlpha          ....  0.666667
   Becke's b parameter  XBeta           ....  0.004200
 Correlation Functional Correlation     .... LYP
 LDA part of GGA corr.  LDAOpt          .... VWN-5
 Gradients option       PostSCFGGA      .... off
 Hybrid DFT is turned on
   Fraction HF Exchange ScalHFX         ....  0.710000
   Scaling of DF-GGA-X  ScalDFX         ....  0.290000
   Scaling of DF-GGA-C  ScalDFC         ....  0.540000
   Scaling of DF-LDA-C  ScalLDAC        ....  0.540000
   Perturbative correction              ....  1.000000
   Density functional embedding theory  .... OFF
 RI-approximation to the Coulomb term is turned on
   Number of auxiliary basis functions  .... 2025
   RI-JK (J+K treated both via RI)      .... on


General Settings:
 Integral files         IntName         .... TMB06_C1
 Hartree-Fock type      HFTyp           .... RHF
 Total Charge           Charge          ....   -2
 Multiplicity           Mult            ....    1
 Number of Electrons    NEL             ....  188
 Basis Dimension        Dim             .... 1005
 Nuclear Repulsion      ENuc            ....   2266.7256803567 Eh

Convergence Acceleration:
 DIIS                   CNVDIIS         .... on
   Start iteration      DIISMaxIt       ....    12
   Startup error        DIISStart       ....  0.200000
   # of expansion vecs  DIISMaxEq       ....     5
   Bias factor          DIISBfac        ....   1.050
   Max. coefficient     DIISMaxC        ....  10.000
 Newton-Raphson         CNVNR           .... off
 SOSCF                  CNVSOSCF        .... off
 Level Shifting         CNVShift        .... on
   Level shift para.    LevelShift      ....    0.2500
   Turn off err/grad.   ShiftErr        ....    0.0010
 Zerner damping         CNVZerner       .... off
 Static damping         CNVDamp         .... on
   Fraction old density DampFac         ....    0.7000
   Max. Damping (<1)    DampMax         ....    0.9800
   Min. Damping (>=0)   DampMin         ....    0.0000
   Turn off err/grad.   DampErr         ....    0.1000
 Fernandez-Rico         CNVRico         .... off

SCF Procedure:
 Maximum # iterations   MaxIter         ....   125
 SCF integral mode      SCFMode         .... Direct
   Integral package                     .... LIBINT
 Reset frequency        DirectResetFreq ....    20
 Integral Threshold     Thresh          ....  1.000e-10 Eh
 Primitive CutOff       TCut            ....  1.000e-11 Eh

Convergence Tolerance:
 Convergence Check Mode ConvCheckMode   .... Total+1el-Energy
 Convergence forced     ConvForced      .... 0
 Energy Change          TolE            ....  1.000e-06 Eh
 1-El. energy change                    ....  1.000e-03 Eh
 DIIS Error             TolErr          ....  1.000e-06


Diagonalization of the overlap matrix:
Smallest eigenvalue                        ... 8.796e-07
Time for diagonalization                   ...    0.176 sec
Threshold for overlap eigenvalues          ... 1.000e-08
Number of eigenvalues below threshold      ... 0
Time for construction of square roots      ...    0.123 sec
Total time needed                          ...    0.302 sec

-------------------
DFT GRID GENERATION
-------------------

General Integration Accuracy     IntAcc      ...  4.670
Radial Grid Type                 RadialGrid  ... Gauss-Chebyshev
Angular Grid (max. acc.)         AngularGrid ... Lebedev-302
Angular grid pruning method      GridPruning ... 3 (G Style)
Weight generation scheme         WeightScheme... Becke
Basis function cutoff            BFCut       ...    1.0000e-10
Integration weight cutoff        WCut        ...    1.0000e-14
Grids for H and He will be reduced by one unit

# of grid points (after initial pruning)     ... 167942 (   0.0 sec)
# of grid points (after weights+screening)   ... 150287 (   0.1 sec)
nearest neighbour list constructed           ...    0.0 sec
Grid point re-assignment to atoms done       ...    0.0 sec
Grid point division into batches done        ...    0.5 sec
Reduced shell lists constructed in    0.9 sec

Total number of grid points                  ...   150287
Total number of batches                      ...     2366
Average number of points per batch           ...       63
Average number of grid points per atom       ...     4696
Average number of shells per batch           ...   167.61 (46.69%)
Average number of basis functions per batch  ...   451.41 (44.92%)
Average number of large shells per batch     ...   115.23 (68.75%)
Average number of large basis fcns per batch ...   311.37 (68.98%)
Average number of aux-shells per batch       ...   167.61 (27.08%)
Average number of aux functions per batch    ...   451.41 (22.29%)
Maximum spatial batch extension              ...   9.67,  8.80, 14.25 au
Average spatial batch extension              ...   0.05,  0.05,  0.06 au

Time for grid setup =    1.383 sec

------------------------------
INITIAL GUESS: MODEL POTENTIAL
------------------------------
Loading Hartree-Fock densities                     ... done
  calling /sw/apps/orca/orca_4_2_0_linux_x86-64_openmpi314/orca TMB06_C1_atom74.inp > TMB06_C1_atom74.out in order to generate an atomic fitting density for atom 14 (W  with ECP) on-the-fly... 
    atom 14 (W ), assumed electronic state with S=5: 1s2 2s2 2p6 3s2 3p6 4s2 3d10 4p6 5s2 4d10 5p6 6s2 4f14 5d4           ... done
Calculating cut-offs                               ... done
Setting up the integral package                    ... done
Initializing the effective Hamiltonian             ... done
Starting the Coulomb interaction                   ... done (   0.1 sec)
Reading the grid                                   ... done
Mapping shells                                     ... done
Starting the XC term evaluation                    ... done (   0.5 sec)
  promolecular density results
     # of electrons  =    245.994065541
     EX              =   -526.315613604
     EC              =     -1.307366440
     EX+EC           =   -527.622980045
Transforming the Hamiltonian                       ... done (   0.1 sec)
Diagonalizing the Hamiltonian                      ... done (   0.1 sec)
Back transforming the eigenvectors                 ... done (   0.0 sec)
Now organizing SCF variables                       ... done
                      ------------------
                      INITIAL GUESS DONE (   3.7 sec)
                      ------------------
--------------
SCF ITERATIONS
--------------
ITER       Energy         Delta-E        Max-DP      RMS-DP      [F,P]     Damp
  0  -2630.7751185819   0.000000000000 1.01068874  0.00254206  0.3489785 0.7000
  1  -2630.4446208460   0.330497735927 0.70720543  0.00193700  0.2794126 0.7000
                               ***Turning on DIIS***
  2  -2630.6415452394  -0.196924393415 0.49366588  0.00133350  0.1691604 0.7000
  3  -2631.0527343332  -0.411189093825 0.29509096  0.00089679  0.1150130 0.7000
  4  -2631.4514814585  -0.398747125280 0.71775983  0.00215388  0.0805707 0.0000
  5  -2631.7417676961  -0.290286237629 0.09952192  0.00038548  0.0273569 0.0000
  6  -2631.7476967362  -0.005929040054 0.03291970  0.00017801  0.0214120 0.0000
  7  -2631.7498900525  -0.002193316356 0.01088622  0.00007999  0.0120422 0.0000
  8  -2631.7506642111  -0.000774158597 0.01477457  0.00008014  0.0066126 0.0000
  9  -2631.7510094370  -0.000345225881 0.00679547  0.00003383  0.0012756 0.0000
 10  -2631.7510469569  -0.000037519931 0.00770667  0.00003633  0.0005341 0.0000
 11  -2631.7510705793  -0.000023622393 0.00991222  0.00002937  0.0003401 0.0000
 12  -2631.7510788109  -0.000008231588 0.00391873  0.00001398  0.0002110 0.0000
 13  -2631.7510817183  -0.000002907345 0.00731894  0.00002376  0.0001504 0.0000
 14  -2631.7510823331  -0.000000614802 0.00586218  0.00001667  0.0000871 0.0000
 15  -2631.7510824453  -0.000000112259 0.00611376  0.00002080  0.0000475 0.0000
 16  -2631.7510824911  -0.000000045758 0.00469502  0.00001629  0.0000294 0.0000
                 **** Energy Check signals convergence ****

               *****************************************************
               *                     SUCCESS                       *
               *           SCF CONVERGED AFTER  17 CYCLES          *
               *****************************************************


----------------
TOTAL SCF ENERGY
----------------

Total Energy       :        -2631.75108251 Eh          -71613.58772 eV

Components:
Nuclear Repulsion  :         2266.72568036 Eh           61680.74155 eV
Electronic Energy  :        -4898.47676286 Eh         -133294.32927 eV
One Electron Energy:        -8213.49435889 Eh         -223500.54405 eV
Two Electron Energy:         3315.01759603 Eh           90206.21478 eV

Virial components:
Potential Energy   :        -5215.99797931 Eh         -141934.52083 eV
Kinetic Energy     :         2584.24689680 Eh           70320.93311 eV
Virial Ratio       :            2.01838222


DFT components:
N(Alpha)           :       93.999911082914 electrons
N(Beta)            :       93.999911082914 electrons
N(Total)           :      187.999822165828 electrons
E(X)               :      -60.658405852562 Eh       
E(C)               :       -3.749789033026 Eh       
E(XC)              :      -64.408194885588 Eh       
DFET-embed. en.    :        0.000000000000 Eh       

---------------
SCF CONVERGENCE
---------------

  Last Energy change         ...   -1.5447e-08  Tolerance :   1.0000e-06
  Last MAX-Density change    ...    1.8368e-02  Tolerance :   1.0000e-05
  Last RMS-Density change    ...    3.7823e-05  Tolerance :   1.0000e-06
  Last DIIS Error            ...    7.2279e-06  Tolerance :   1.0000e-06

             **** THE GBW FILE WAS UPDATED (TMB06_C1.gbw) ****
             **** DENSITY FILE WAS UPDATED (TMB06_C1.scfp) ****
             **** ENERGY FILE WAS UPDATED (TMB06_C1.en.tmp) ****
             **** THE GBW FILE WAS UPDATED (TMB06_C1.gbw) ****
             **** DENSITY FILE WAS UPDATED (TMB06_C1.scfp) ****
----------------
ORBITAL ENERGIES
----------------

  NO   OCC          E(Eh)            E(eV) 
   0   2.0000     -90.633953     -2466.2752 
   1   2.0000     -90.601901     -2465.4031 
   2   2.0000     -90.593945     -2465.1866 
   3   2.0000     -90.585267     -2464.9504 
   4   2.0000     -90.581984     -2464.8611 
   5   2.0000     -19.819711      -539.3218 
   6   2.0000     -19.739150      -537.1296 
   7   2.0000     -19.725103      -536.7473 
   8   2.0000     -10.707041      -291.3534 
   9   2.0000     -10.686620      -290.7977 
  10   2.0000     -10.672697      -290.4189 
  11   2.0000     -10.656985      -289.9913 
  12   2.0000     -10.653127      -289.8863 
  13   2.0000     -10.648430      -289.7585 
  14   2.0000     -10.646313      -289.7009 
  15   2.0000     -10.644509      -289.6518 
  16   2.0000     -10.625446      -289.1331 
  17   2.0000      -8.378812      -227.9991 
  18   2.0000      -8.347841      -227.1563 
  19   2.0000      -8.339477      -226.9287 
  20   2.0000      -8.330747      -226.6911 
  21   2.0000      -8.327038      -226.5902 
  22   2.0000      -6.162147      -167.6806 
  23   2.0000      -6.160210      -167.6278 
  24   2.0000      -6.159352      -167.6045 
  25   2.0000      -6.131424      -166.8445 
  26   2.0000      -6.128831      -166.7740 
  27   2.0000      -6.128388      -166.7619 
  28   2.0000      -6.123025      -166.6160 
  29   2.0000      -6.120913      -166.5585 
  30   2.0000      -6.120030      -166.5345 
  31   2.0000      -6.114495      -166.3839 
  32   2.0000      -6.112310      -166.3244 
  33   2.0000      -6.110808      -166.2835 
  34   2.0000      -6.110783      -166.2829 
  35   2.0000      -6.108485      -166.2203 
  36   2.0000      -6.107479      -166.1930 
  37   2.0000      -3.112111       -84.6848 
  38   2.0000      -1.649435       -44.8834 
  39   2.0000      -1.646758       -44.8106 
  40   2.0000      -1.642228       -44.6873 
  41   2.0000      -1.000603       -27.2278 
  42   2.0000      -0.991930       -26.9918 
  43   2.0000      -0.891610       -24.2620 
  44   2.0000      -0.791549       -21.5391 
  45   2.0000      -0.754267       -20.5247 
  46   2.0000      -0.726695       -19.7744 
  47   2.0000      -0.700958       -19.0740 
  48   2.0000      -0.672246       -18.2928 
  49   2.0000      -0.660149       -17.9636 
  50   2.0000      -0.635164       -17.2837 
  51   2.0000      -0.592384       -16.1196 
  52   2.0000      -0.561363       -15.2755 
  53   2.0000      -0.531958       -14.4753 
  54   2.0000      -0.473633       -12.8882 
  55   2.0000      -0.449501       -12.2316 
  56   2.0000      -0.428037       -11.6475 
  57   2.0000      -0.421990       -11.4829 
  58   2.0000      -0.392345       -10.6763 
  59   2.0000      -0.387754       -10.5513 
  60   2.0000      -0.379720       -10.3327 
  61   2.0000      -0.354395        -9.6436 
  62   2.0000      -0.324173        -8.8212 
  63   2.0000      -0.318360        -8.6630 
  64   2.0000      -0.315850        -8.5947 
  65   2.0000      -0.313389        -8.5277 
  66   2.0000      -0.310438        -8.4474 
  67   2.0000      -0.306412        -8.3379 
  68   2.0000      -0.284704        -7.7472 
  69   2.0000      -0.259988        -7.0746 
  70   2.0000      -0.252200        -6.8627 
  71   2.0000      -0.236211        -6.4276 
  72   2.0000      -0.226969        -6.1762 
  73   2.0000      -0.222271        -6.0483 
  74   2.0000      -0.215705        -5.8696 
  75   2.0000      -0.213072        -5.7980 
  76   2.0000      -0.210314        -5.7229 
  77   2.0000      -0.200553        -5.4573 
  78   2.0000      -0.191241        -5.2039 
  79   2.0000      -0.175042        -4.7631 
  80   2.0000      -0.170201        -4.6314 
  81   2.0000      -0.156516        -4.2590 
  82   2.0000      -0.140479        -3.8226 
  83   2.0000      -0.131577        -3.5804 
  84   2.0000      -0.119097        -3.2408 
  85   2.0000      -0.106659        -2.9023 
  86   2.0000      -0.101603        -2.7648 
  87   2.0000      -0.098322        -2.6755 
  88   2.0000      -0.092528        -2.5178 
  89   2.0000      -0.091271        -2.4836 
  90   2.0000      -0.074036        -2.0146 
  91   2.0000      -0.057576        -1.5667 
  92   2.0000      -0.050845        -1.3836 
  93   2.0000      -0.015190        -0.4133 
  94   0.0000       0.182082         4.9547 
  95   0.0000       0.184906         5.0315 
  96   0.0000       0.197196         5.3660 
  97   0.0000       0.201703         5.4886 
  98   0.0000       0.206204         5.6111 
  99   0.0000       0.216683         5.8962 
 100   0.0000       0.219673         5.9776 
 101   0.0000       0.222648         6.0586 
 102   0.0000       0.225796         6.1442 
 103   0.0000       0.232519         6.3272 
 104   0.0000       0.237483         6.4622 
 105   0.0000       0.240080         6.5329 
 106   0.0000       0.246355         6.7037 
 107   0.0000       0.248812         6.7705 
 108   0.0000       0.254866         6.9352 
 109   0.0000       0.256321         6.9749 
 110   0.0000       0.259569         7.0632 
 111   0.0000       0.265474         7.2239 
 112   0.0000       0.268696         7.3116 
 113   0.0000       0.273123         7.4321 
 114   0.0000       0.277195         7.5429 
 115   0.0000       0.281411         7.6576 
 116   0.0000       0.284113         7.7311 
 117   0.0000       0.289771         7.8851 
 118   0.0000       0.292239         7.9522 
 119   0.0000       0.292873         7.9695 
 120   0.0000       0.297661         8.0998 
 121   0.0000       0.305738         8.3196 
 122   0.0000       0.309681         8.4269 
 123   0.0000       0.311310         8.4712 
 124   0.0000       0.313345         8.5266 
 125   0.0000       0.315888         8.5958 
 126   0.0000       0.323746         8.8096 
 127   0.0000       0.327668         8.9163 
 128   0.0000       0.327982         8.9248 
 129   0.0000       0.331310         9.0154 
 130   0.0000       0.332240         9.0407 
 131   0.0000       0.334760         9.1093 
 132   0.0000       0.338057         9.1990 
 133   0.0000       0.345321         9.3967 
 134   0.0000       0.349673         9.5151 
 135   0.0000       0.351107         9.5541 
 136   0.0000       0.356038         9.6883 
 137   0.0000       0.360303         9.8044 
 138   0.0000       0.365645         9.9497 
 139   0.0000       0.370307        10.0766 
 140   0.0000       0.370888        10.0924 
 141   0.0000       0.373982        10.1766 
 142   0.0000       0.378917        10.3109 
 143   0.0000       0.381203        10.3731 
 144   0.0000       0.384433        10.4609 
 145   0.0000       0.387431        10.5425 
 146   0.0000       0.390867        10.6360 
 147   0.0000       0.395264        10.7557 
 148   0.0000       0.396728        10.7955 
 149   0.0000       0.401591        10.9278 
 150   0.0000       0.405795        11.0423 
 151   0.0000       0.409090        11.1319 
 152   0.0000       0.410550        11.1716 
 153   0.0000       0.414414        11.2768 
 154   0.0000       0.416722        11.3396 
 155   0.0000       0.420322        11.4375 
 156   0.0000       0.427037        11.6203 
 157   0.0000       0.427541        11.6340 
 158   0.0000       0.433920        11.8076 
 159   0.0000       0.438186        11.9236 
 160   0.0000       0.439476        11.9588 
 161   0.0000       0.440116        11.9762 
 162   0.0000       0.444381        12.0922 
 163   0.0000       0.447285        12.1712 
 164   0.0000       0.449436        12.2298 
 165   0.0000       0.453067        12.3286 
 166   0.0000       0.454354        12.3636 
 167   0.0000       0.462483        12.5848 
 168   0.0000       0.465444        12.6654 
 169   0.0000       0.466623        12.6975 
 170   0.0000       0.467381        12.7181 
 171   0.0000       0.471303        12.8248 
 172   0.0000       0.475965        12.9517 
 173   0.0000       0.478801        13.0288 
 174   0.0000       0.482159        13.1202 
 175   0.0000       0.484318        13.1790 
 176   0.0000       0.486696        13.2437 
 177   0.0000       0.489750        13.3268 
 178   0.0000       0.490250        13.3404 
 179   0.0000       0.494417        13.4538 
 180   0.0000       0.495056        13.4712 
 181   0.0000       0.496293        13.5048 
 182   0.0000       0.500471        13.6185 
 183   0.0000       0.503450        13.6996 
 184   0.0000       0.507082        13.7984 
 185   0.0000       0.510638        13.8952 
 186   0.0000       0.511128        13.9085 
 187   0.0000       0.515300        14.0220 
 188   0.0000       0.516348        14.0506 
 189   0.0000       0.523445        14.2437 
 190   0.0000       0.525598        14.3022 
 191   0.0000       0.529134        14.3985 
 192   0.0000       0.532838        14.4992 
 193   0.0000       0.536311        14.5938 
 194   0.0000       0.537090        14.6150 
 195   0.0000       0.537563        14.6278 
 196   0.0000       0.544392        14.8137 
 197   0.0000       0.547254        14.8915 
 198   0.0000       0.548544        14.9267 
 199   0.0000       0.555062        15.1040 
 200   0.0000       0.557888        15.1809 
 201   0.0000       0.558937        15.2094 
 202   0.0000       0.561466        15.2783 
 203   0.0000       0.562401        15.3037 
 204   0.0000       0.567713        15.4483 
 205   0.0000       0.569267        15.4905 
 206   0.0000       0.572196        15.5703 
 207   0.0000       0.576711        15.6931 
 208   0.0000       0.578439        15.7401 
 209   0.0000       0.579086        15.7577 
 210   0.0000       0.582827        15.8595 
 211   0.0000       0.584238        15.8979 
 212   0.0000       0.586484        15.9590 
 213   0.0000       0.590822        16.0771 
 214   0.0000       0.594182        16.1685 
 215   0.0000       0.596840        16.2408 
 216   0.0000       0.598100        16.2751 
 217   0.0000       0.604397        16.4465 
 218   0.0000       0.606467        16.5028 
 219   0.0000       0.607200        16.5227 
 220   0.0000       0.610075        16.6010 
 221   0.0000       0.616436        16.7741 
 222   0.0000       0.620475        16.8840 
 223   0.0000       0.622436        16.9373 
 224   0.0000       0.626137        17.0380 
 225   0.0000       0.629152        17.1201 
 226   0.0000       0.633124        17.2282 
 227   0.0000       0.633523        17.2390 
 228   0.0000       0.637065        17.3354 
 229   0.0000       0.640331        17.4243 
 230   0.0000       0.643957        17.5230 
 231   0.0000       0.645404        17.5623 
 232   0.0000       0.647561        17.6210 
 233   0.0000       0.652430        17.7535 
 234   0.0000       0.655828        17.8460 
 235   0.0000       0.658693        17.9239 
 236   0.0000       0.659670        17.9505 
 237   0.0000       0.663062        18.0428 
 238   0.0000       0.669909        18.2292 
 239   0.0000       0.672913        18.3109 
 240   0.0000       0.675864        18.3912 
 241   0.0000       0.678481        18.4624 
 242   0.0000       0.683004        18.5855 
 243   0.0000       0.684904        18.6372 
 244   0.0000       0.688863        18.7449 
 245   0.0000       0.690808        18.7978 
 246   0.0000       0.694061        18.8864 
 247   0.0000       0.697864        18.9899 
 248   0.0000       0.699212        19.0265 
 249   0.0000       0.701610        19.0918 
 250   0.0000       0.707573        19.2540 
 251   0.0000       0.708845        19.2886 
 252   0.0000       0.710608        19.3366 
 253   0.0000       0.715064        19.4579 
 254   0.0000       0.715728        19.4759 
 255   0.0000       0.720988        19.6191 
 256   0.0000       0.723328        19.6827 
 257   0.0000       0.724899        19.7255 
 258   0.0000       0.728837        19.8327 
 259   0.0000       0.734661        19.9912 
 260   0.0000       0.736795        20.0492 
 261   0.0000       0.743055        20.2195 
 262   0.0000       0.746073        20.3017 
 263   0.0000       0.748654        20.3719 
 264   0.0000       0.751220        20.4417 
 265   0.0000       0.754311        20.5258 
 266   0.0000       0.759015        20.6538 
 267   0.0000       0.761210        20.7136 
 268   0.0000       0.765166        20.8212 
 269   0.0000       0.766871        20.8676 
 270   0.0000       0.773208        21.0401 
 271   0.0000       0.773944        21.0601 
 272   0.0000       0.777440        21.1552 
 273   0.0000       0.784557        21.3489 
 274   0.0000       0.789137        21.4735 
 275   0.0000       0.789960        21.4959 
 276   0.0000       0.790795        21.5186 
 277   0.0000       0.795983        21.6598 
 278   0.0000       0.799670        21.7601 
 279   0.0000       0.803519        21.8649 
 280   0.0000       0.808449        21.9990 
 281   0.0000       0.815367        22.1873 
 282   0.0000       0.818700        22.2780 
 283   0.0000       0.819861        22.3095 
 284   0.0000       0.823142        22.3988 
 285   0.0000       0.828681        22.5496 
 286   0.0000       0.832277        22.6474 
 287   0.0000       0.836752        22.7692 
 288   0.0000       0.837635        22.7932 
 289   0.0000       0.844804        22.9883 
 290   0.0000       0.846149        23.0249 
 291   0.0000       0.852800        23.2059 
 292   0.0000       0.857882        23.3442 
 293   0.0000       0.862083        23.4585 
 294   0.0000       0.864066        23.5124 
 295   0.0000       0.864892        23.5349 
 296   0.0000       0.870082        23.6761 
 297   0.0000       0.875371        23.8201 
 298   0.0000       0.880626        23.9631 
 299   0.0000       0.883564        24.0430 
 300   0.0000       0.886713        24.1287 
 301   0.0000       0.890899        24.2426 
 302   0.0000       0.894211        24.3327 
 303   0.0000       0.897092        24.4111 
 304   0.0000       0.898911        24.4606 
 305   0.0000       0.900718        24.5098 
 306   0.0000       0.907278        24.6883 
 307   0.0000       0.909039        24.7362 
 308   0.0000       0.910311        24.7708 
 309   0.0000       0.912908        24.8415 
 310   0.0000       0.917728        24.9726 
 311   0.0000       0.922187        25.0940 
 312   0.0000       0.924786        25.1647 
 313   0.0000       0.931501        25.3474 
 314   0.0000       0.932733        25.3810 
 315   0.0000       0.934428        25.4271 
 316   0.0000       0.940248        25.5855 
 317   0.0000       0.944108        25.6905 
 318   0.0000       0.946904        25.7666 
 319   0.0000       0.949672        25.8419 
 320   0.0000       0.955200        25.9923 
 321   0.0000       0.961176        26.1549 
 322   0.0000       0.962270        26.1847 
 323   0.0000       0.968146        26.3446 
 324   0.0000       0.970276        26.4025 
 325   0.0000       0.972413        26.4607 
 326   0.0000       0.976094        26.5609 
 327   0.0000       0.980641        26.6846 
 328   0.0000       0.985779        26.8244 
 329   0.0000       0.987721        26.8772 
 330   0.0000       0.990726        26.9590 
 331   0.0000       0.994639        27.0655 
 332   0.0000       0.996916        27.1275 
 333   0.0000       0.998140        27.1608 
 334   0.0000       1.001459        27.2511 
 335   0.0000       1.003370        27.3031 
 336   0.0000       1.006006        27.3748 
 337   0.0000       1.013267        27.5724 
 338   0.0000       1.015919        27.6446 
 339   0.0000       1.016237        27.6532 
 340   0.0000       1.019156        27.7326 
 341   0.0000       1.023995        27.8643 
 342   0.0000       1.025386        27.9022 
 343   0.0000       1.034419        28.1480 
 344   0.0000       1.036723        28.2107 
 345   0.0000       1.037954        28.2442 
 346   0.0000       1.041837        28.3498 
 347   0.0000       1.046080        28.4653 
 348   0.0000       1.051209        28.6049 
 349   0.0000       1.053808        28.6756 
 350   0.0000       1.060946        28.8698 
 351   0.0000       1.065050        28.9815 
 352   0.0000       1.067966        29.0608 
 353   0.0000       1.071034        29.1443 
 354   0.0000       1.075502        29.2659 
 355   0.0000       1.078349        29.3434 
 356   0.0000       1.080865        29.4118 
 357   0.0000       1.082890        29.4669 
 358   0.0000       1.085792        29.5459 
 359   0.0000       1.092185        29.7199 
 360   0.0000       1.097894        29.8752 
 361   0.0000       1.099079        29.9075 
 362   0.0000       1.099482        29.9184 
 363   0.0000       1.108674        30.1685 
 364   0.0000       1.117219        30.4011 
 365   0.0000       1.119598        30.4658 
 366   0.0000       1.127162        30.6716 
 367   0.0000       1.130879        30.7728 
 368   0.0000       1.132496        30.8168 
 369   0.0000       1.136384        30.9226 
 370   0.0000       1.144402        31.1408 
 371   0.0000       1.145684        31.1757 
 372   0.0000       1.149876        31.2897 
 373   0.0000       1.153015        31.3751 
 374   0.0000       1.159537        31.5526 
 375   0.0000       1.166003        31.7285 
 376   0.0000       1.167395        31.7664 
 377   0.0000       1.177261        32.0349 
 378   0.0000       1.184771        32.2393 
 379   0.0000       1.186875        32.2965 
 380   0.0000       1.191080        32.4109 
 381   0.0000       1.195328        32.5265 
 382   0.0000       1.202493        32.7215 
 383   0.0000       1.204487        32.7758 
 384   0.0000       1.209718        32.9181 
 385   0.0000       1.219827        33.1932 
 386   0.0000       1.224643        33.3242 
 387   0.0000       1.228992        33.4426 
 388   0.0000       1.230038        33.4710 
 389   0.0000       1.240195        33.7474 
 390   0.0000       1.244127        33.8544 
 391   0.0000       1.252238        34.0751 
 392   0.0000       1.260474        34.2992 
 393   0.0000       1.262072        34.3427 
 394   0.0000       1.263416        34.3793 
 395   0.0000       1.267948        34.5026 
 396   0.0000       1.276825        34.7442 
 397   0.0000       1.280330        34.8396 
 398   0.0000       1.281046        34.8590 
 399   0.0000       1.291523        35.1441 
 400   0.0000       1.292978        35.1837 
 401   0.0000       1.295735        35.2588 
 402   0.0000       1.308918        35.6175 
 403   0.0000       1.311553        35.6892 
 404   0.0000       1.322592        35.9896 
 405   0.0000       1.327570        36.1250 
 406   0.0000       1.332199        36.2510 
 407   0.0000       1.332481        36.2587 
 408   0.0000       1.336752        36.3749 
 409   0.0000       1.342781        36.5389 
 410   0.0000       1.348698        36.6999 
 411   0.0000       1.358142        36.9569 
 412   0.0000       1.365072        37.1455 
 413   0.0000       1.367142        37.2018 
 414   0.0000       1.376173        37.4476 
 415   0.0000       1.376772        37.4639 
 416   0.0000       1.382482        37.6192 
 417   0.0000       1.396963        38.0133 
 418   0.0000       1.407643        38.3039 
 419   0.0000       1.411774        38.4163 
 420   0.0000       1.414963        38.5031 
 421   0.0000       1.420002        38.6402 
 422   0.0000       1.425000        38.7762 
 423   0.0000       1.435824        39.0708 
 424   0.0000       1.442978        39.2654 
 425   0.0000       1.449634        39.4465 
 426   0.0000       1.454937        39.5908 
 427   0.0000       1.459189        39.7065 
 428   0.0000       1.469481        39.9866 
 429   0.0000       1.471712        40.0473 
 430   0.0000       1.475292        40.1447 
 431   0.0000       1.480203        40.2784 
 432   0.0000       1.485516        40.4229 
 433   0.0000       1.493139        40.6304 
 434   0.0000       1.504501        40.9395 
 435   0.0000       1.507152        41.0117 
 436   0.0000       1.522100        41.4184 
 437   0.0000       1.524342        41.4795 
 438   0.0000       1.527058        41.5534 
 439   0.0000       1.534315        41.7508 
 440   0.0000       1.538468        41.8639 
 441   0.0000       1.546791        42.0903 
 442   0.0000       1.559363        42.4324 
 443   0.0000       1.560943        42.4754 
 444   0.0000       1.570285        42.7296 
 445   0.0000       1.573416        42.8148 
 446   0.0000       1.582464        43.0610 
 447   0.0000       1.587296        43.1925 
 448   0.0000       1.589840        43.2617 
 449   0.0000       1.591589        43.3093 
 450   0.0000       1.600575        43.5539 
 451   0.0000       1.608157        43.7602 
 452   0.0000       1.613063        43.8937 
 453   0.0000       1.618124        44.0314 
 454   0.0000       1.621093        44.1122 
 455   0.0000       1.626256        44.2527 
 456   0.0000       1.631520        44.3959 
 457   0.0000       1.642382        44.6915 
 458   0.0000       1.645193        44.7680 
 459   0.0000       1.652650        44.9709 
 460   0.0000       1.658390        45.1271 
 461   0.0000       1.665860        45.3303 
 462   0.0000       1.672455        45.5098 
 463   0.0000       1.681208        45.7480 
 464   0.0000       1.681965        45.7686 
 465   0.0000       1.692184        46.0467 
 466   0.0000       1.697453        46.1901 
 467   0.0000       1.711507        46.5725 
 468   0.0000       1.717325        46.7308 
 469   0.0000       1.727495        47.0075 
 470   0.0000       1.730192        47.0809 
 471   0.0000       1.734349        47.1940 
 472   0.0000       1.737703        47.2853 
 473   0.0000       1.747795        47.5599 
 474   0.0000       1.749913        47.6175 
 475   0.0000       1.755266        47.7632 
 476   0.0000       1.758921        47.8627 
 477   0.0000       1.760903        47.9166 
 478   0.0000       1.771978        48.2180 
 479   0.0000       1.778000        48.3818 
 480   0.0000       1.783615        48.5346 
 481   0.0000       1.794024        48.8179 
 482   0.0000       1.801391        49.0183 
 483   0.0000       1.808029        49.1990 
 484   0.0000       1.813092        49.3367 
 485   0.0000       1.827900        49.7397 
 486   0.0000       1.834897        49.9301 
 487   0.0000       1.839675        50.0601 
 488   0.0000       1.853560        50.4379 
 489   0.0000       1.862097        50.6702 
 490   0.0000       1.874335        51.0033 
 491   0.0000       1.881580        51.2004 
 492   0.0000       1.899531        51.6889 
 493   0.0000       1.907420        51.9035 
 494   0.0000       1.914444        52.0947 
 495   0.0000       1.930445        52.5301 
 496   0.0000       1.934276        52.6343 
 497   0.0000       1.941466        52.8300 
 498   0.0000       1.943163        52.8762 
 499   0.0000       1.947454        52.9929 
 500   0.0000       1.951982        53.1161 
 501   0.0000       1.961827        53.3840 
 502   0.0000       1.977900        53.8214 
 503   0.0000       1.985131        54.0182 
 504   0.0000       1.994224        54.2656 
 505   0.0000       2.000686        54.4414 
 506   0.0000       2.011257        54.7291 
 507   0.0000       2.017128        54.8888 
 508   0.0000       2.020405        54.9780 
 509   0.0000       2.033130        55.3243 
 510   0.0000       2.034796        55.3696 
 511   0.0000       2.039348        55.4935 
 512   0.0000       2.061087        56.0850 
 513   0.0000       2.074297        56.4445 
 514   0.0000       2.080129        56.6032 
 515   0.0000       2.090427        56.8834 
 516   0.0000       2.097799        57.0840 
 517   0.0000       2.101800        57.1929 
 518   0.0000       2.110121        57.4193 
 519   0.0000       2.115442        57.5641 
 520   0.0000       2.121416        57.7267 
 521   0.0000       2.124631        57.8141 
 522   0.0000       2.129615        57.9498 
 523   0.0000       2.133831        58.0645 
 524   0.0000       2.142155        58.2910 
 525   0.0000       2.143751        58.3344 
 526   0.0000       2.148043        58.4512 
 527   0.0000       2.154581        58.6291 
 528   0.0000       2.162182        58.8360 
 529   0.0000       2.166504        58.9536 
 530   0.0000       2.169182        59.0264 
 531   0.0000       2.174945        59.1833 
 532   0.0000       2.176978        59.2386 
 533   0.0000       2.185852        59.4801 
 534   0.0000       2.189667        59.5839 
 535   0.0000       2.196987        59.7831 
 536   0.0000       2.203781        59.9679 
 537   0.0000       2.207487        60.0688 
 538   0.0000       2.211769        60.1853 
 539   0.0000       2.215411        60.2844 
 540   0.0000       2.223443        60.5030 
 541   0.0000       2.227800        60.6215 
 542   0.0000       2.234289        60.7981 
 543   0.0000       2.238445        60.9112 
 544   0.0000       2.243323        61.0439 
 545   0.0000       2.247752        61.1644 
 546   0.0000       2.254975        61.3610 
 547   0.0000       2.265456        61.6462 
 548   0.0000       2.275098        61.9086 
 549   0.0000       2.282337        62.1056 
 550   0.0000       2.288673        62.2780 
 551   0.0000       2.298444        62.5438 
 552   0.0000       2.301122        62.6167 
 553   0.0000       2.307438        62.7886 
 554   0.0000       2.309193        62.8363 
 555   0.0000       2.318870        63.0997 
 556   0.0000       2.325240        63.2730 
 557   0.0000       2.331787        63.4512 
 558   0.0000       2.339833        63.6701 
 559   0.0000       2.343457        63.7687 
 560   0.0000       2.347869        63.8888 
 561   0.0000       2.354986        64.0824 
 562   0.0000       2.358244        64.1711 
 563   0.0000       2.366449        64.3943 
 564   0.0000       2.368757        64.4571 
 565   0.0000       2.371000        64.5182 
 566   0.0000       2.378893        64.7330 
 567   0.0000       2.390912        65.0600 
 568   0.0000       2.392560        65.1049 
 569   0.0000       2.394091        65.1465 
 570   0.0000       2.406977        65.4972 
 571   0.0000       2.413642        65.6785 
 572   0.0000       2.418034        65.7981 
 573   0.0000       2.424412        65.9716 
 574   0.0000       2.435739        66.2798 
 575   0.0000       2.437587        66.3301 
 576   0.0000       2.445952        66.5577 
 577   0.0000       2.447829        66.6088 
 578   0.0000       2.454015        66.7771 
 579   0.0000       2.466863        67.1268 
 580   0.0000       2.472428        67.2782 
 581   0.0000       2.483408        67.5770 
 582   0.0000       2.484352        67.6026 
 583   0.0000       2.491618        67.8004 
 584   0.0000       2.496716        67.9391 
 585   0.0000       2.512145        68.3589 
 586   0.0000       2.514224        68.4155 
 587   0.0000       2.528226        68.7965 
 588   0.0000       2.532988        68.9261 
 589   0.0000       2.537782        69.0566 
 590   0.0000       2.543525        69.2128 
 591   0.0000       2.548241        69.3412 
 592   0.0000       2.560044        69.6623 
 593   0.0000       2.567707        69.8709 
 594   0.0000       2.573800        70.0366 
 595   0.0000       2.586614        70.3853 
 596   0.0000       2.597284        70.6757 
 597   0.0000       2.601835        70.7995 
 598   0.0000       2.609778        71.0157 
 599   0.0000       2.612148        71.0802 
 600   0.0000       2.618381        71.2498 
 601   0.0000       2.629732        71.5586 
 602   0.0000       2.630841        71.5888 
 603   0.0000       2.636276        71.7367 
 604   0.0000       2.641286        71.8730 
 605   0.0000       2.646294        72.0093 
 606   0.0000       2.652804        72.1865 
 607   0.0000       2.663622        72.4808 
 608   0.0000       2.671479        72.6947 
 609   0.0000       2.674861        72.7867 
 610   0.0000       2.686399        73.1006 
 611   0.0000       2.688934        73.1696 
 612   0.0000       2.701553        73.5130 
 613   0.0000       2.709366        73.7256 
 614   0.0000       2.721125        74.0456 
 615   0.0000       2.731413        74.3255 
 616   0.0000       2.737609        74.4941 
 617   0.0000       2.745212        74.7010 
 618   0.0000       2.751417        74.8699 
 619   0.0000       2.756906        75.0192 
 620   0.0000       2.768157        75.3254 
 621   0.0000       2.790895        75.9441 
 622   0.0000       2.797833        76.1329 
 623   0.0000       2.806280        76.3628 
 624   0.0000       2.826631        76.9165 
 625   0.0000       2.828694        76.9727 
 626   0.0000       2.835790        77.1658 
 627   0.0000       2.846320        77.4523 
 628   0.0000       2.863652        77.9239 
 629   0.0000       2.871238        78.1304 
 630   0.0000       2.878527        78.3287 
 631   0.0000       2.890229        78.6471 
 632   0.0000       2.902526        78.9817 
 633   0.0000       2.918372        79.4129 
 634   0.0000       2.926371        79.6306 
 635   0.0000       2.947637        80.2093 
 636   0.0000       2.952762        80.3487 
 637   0.0000       2.967174        80.7409 
 638   0.0000       2.975129        80.9574 
 639   0.0000       2.986341        81.2625 
 640   0.0000       2.998236        81.5862 
 641   0.0000       3.012571        81.9762 
 642   0.0000       3.025774        82.3355 
 643   0.0000       3.040328        82.7315 
 644   0.0000       3.042479        82.7901 
 645   0.0000       3.056568        83.1734 
 646   0.0000       3.067325        83.4662 
 647   0.0000       3.071650        83.5838 
 648   0.0000       3.104864        84.4876 
 649   0.0000       3.116234        84.7970 
 650   0.0000       3.121675        84.9451 
 651   0.0000       3.132735        85.2461 
 652   0.0000       3.149254        85.6956 
 653   0.0000       3.173098        86.3444 
 654   0.0000       3.185358        86.6780 
 655   0.0000       3.197171        86.9994 
 656   0.0000       3.207891        87.2911 
 657   0.0000       3.217708        87.5583 
 658   0.0000       3.223573        87.7179 
 659   0.0000       3.225949        87.7825 
 660   0.0000       3.239530        88.1521 
 661   0.0000       3.247364        88.3653 
 662   0.0000       3.259411        88.6931 
 663   0.0000       3.263476        88.8037 
 664   0.0000       3.274978        89.1167 
 665   0.0000       3.276688        89.1632 
 666   0.0000       3.283549        89.3499 
 667   0.0000       3.297014        89.7163 
 668   0.0000       3.308535        90.0298 
 669   0.0000       3.310423        90.0812 
 670   0.0000       3.315818        90.2280 
 671   0.0000       3.318408        90.2985 
 672   0.0000       3.326627        90.5221 
 673   0.0000       3.345557        91.0372 
 674   0.0000       3.358771        91.3968 
 675   0.0000       3.394615        92.3722 
 676   0.0000       3.408092        92.7389 
 677   0.0000       3.418398        93.0193 
 678   0.0000       3.423685        93.1632 
 679   0.0000       3.426846        93.2492 
 680   0.0000       3.445543        93.7580 
 681   0.0000       3.463349        94.2425 
 682   0.0000       3.466034        94.3156 
 683   0.0000       3.472004        94.4780 
 684   0.0000       3.480750        94.7160 
 685   0.0000       3.482161        94.7544 
 686   0.0000       3.491730        95.0148 
 687   0.0000       3.495129        95.1073 
 688   0.0000       3.499573        95.2282 
 689   0.0000       3.503917        95.3464 
 690   0.0000       3.516797        95.6969 
 691   0.0000       3.527015        95.9750 
 692   0.0000       3.535283        96.1999 
 693   0.0000       3.535857        96.2156 
 694   0.0000       3.544173        96.4419 
 695   0.0000       3.546856        96.5148 
 696   0.0000       3.554947        96.7350 
 697   0.0000       3.571265        97.1791 
 698   0.0000       3.576236        97.3143 
 699   0.0000       3.581708        97.4632 
 700   0.0000       3.591098        97.7188 
 701   0.0000       3.599366        97.9437 
 702   0.0000       3.606056        98.1258 
 703   0.0000       3.612705        98.3067 
 704   0.0000       3.615253        98.3760 
 705   0.0000       3.621179        98.5373 
 706   0.0000       3.626175        98.6732 
 707   0.0000       3.628822        98.7453 
 708   0.0000       3.636532        98.9551 
 709   0.0000       3.636759        98.9612 
 710   0.0000       3.643405        99.1421 
 711   0.0000       3.650954        99.3475 
 712   0.0000       3.653229        99.4094 
 713   0.0000       3.669292        99.8465 
 714   0.0000       3.675907       100.0265 
 715   0.0000       3.681251       100.1719 
 716   0.0000       3.689407       100.3939 
 717   0.0000       3.702743       100.7568 
 718   0.0000       3.711284       100.9892 
 719   0.0000       3.719357       101.2089 
 720   0.0000       3.729492       101.4846 
 721   0.0000       3.731198       101.5311 
 722   0.0000       3.739159       101.7477 
 723   0.0000       3.746393       101.9445 
 724   0.0000       3.760722       102.3345 
 725   0.0000       3.774252       102.7026 
 726   0.0000       3.779929       102.8571 
 727   0.0000       3.788430       103.0884 
 728   0.0000       3.799138       103.3798 
 729   0.0000       3.810549       103.6903 
 730   0.0000       3.821171       103.9793 
 731   0.0000       3.831675       104.2652 
 732   0.0000       3.833822       104.3236 
 733   0.0000       3.849664       104.7547 
 734   0.0000       3.852490       104.8316 
 735   0.0000       3.856755       104.9476 
 736   0.0000       3.862138       105.0941 
 737   0.0000       3.878089       105.5282 
 738   0.0000       3.880550       105.5951 
 739   0.0000       3.887610       105.7873 
 740   0.0000       3.896989       106.0425 
 741   0.0000       3.897610       106.0593 
 742   0.0000       3.905673       106.2788 
 743   0.0000       3.914376       106.5156 
 744   0.0000       3.919415       106.6527 
 745   0.0000       3.925111       106.8077 
 746   0.0000       3.928732       106.9062 
 747   0.0000       3.941860       107.2635 
 748   0.0000       3.946626       107.3932 
 749   0.0000       3.952393       107.5501 
 750   0.0000       3.956982       107.6750 
 751   0.0000       3.960182       107.7620 
 752   0.0000       3.966684       107.9390 
 753   0.0000       3.969116       108.0051 
 754   0.0000       3.975827       108.1877 
 755   0.0000       3.984271       108.4175 
 756   0.0000       3.992847       108.6509 
 757   0.0000       3.997209       108.7696 
 758   0.0000       4.003756       108.9477 
 759   0.0000       4.008987       109.0901 
 760   0.0000       4.017046       109.3094 
 761   0.0000       4.029929       109.6599 
 762   0.0000       4.039157       109.9110 
 763   0.0000       4.050810       110.2282 
 764   0.0000       4.071560       110.7928 
 765   0.0000       4.080714       111.0419 
 766   0.0000       4.088485       111.2533 
 767   0.0000       4.092230       111.3552 
 768   0.0000       4.101406       111.6049 
 769   0.0000       4.111981       111.8927 
 770   0.0000       4.120096       112.1135 
 771   0.0000       4.137041       112.5746 
 772   0.0000       4.141980       112.7090 
 773   0.0000       4.159540       113.1868 
 774   0.0000       4.164906       113.3329 
 775   0.0000       4.175451       113.6198 
 776   0.0000       4.191598       114.0592 
 777   0.0000       4.204355       114.4063 
 778   0.0000       4.206188       114.4562 
 779   0.0000       4.226172       115.0000 
 780   0.0000       4.230131       115.1077 
 781   0.0000       4.239073       115.3510 
 782   0.0000       4.257805       115.8608 
 783   0.0000       4.262586       115.9909 
 784   0.0000       4.274479       116.3145 
 785   0.0000       4.290361       116.7467 
 786   0.0000       4.291465       116.7767 
 787   0.0000       4.297600       116.9436 
 788   0.0000       4.305604       117.1614 
 789   0.0000       4.310629       117.2982 
 790   0.0000       4.316312       117.4528 
 791   0.0000       4.322093       117.6101 
 792   0.0000       4.331416       117.8638 
 793   0.0000       4.339473       118.0831 
 794   0.0000       4.344502       118.2199 
 795   0.0000       4.349161       118.3467 
 796   0.0000       4.353950       118.4770 
 797   0.0000       4.359458       118.6269 
 798   0.0000       4.373332       119.0044 
 799   0.0000       4.389188       119.4359 
 800   0.0000       4.396096       119.6239 
 801   0.0000       4.401147       119.7613 
 802   0.0000       4.408539       119.9624 
 803   0.0000       4.430232       120.5527 
 804   0.0000       4.443828       120.9227 
 805   0.0000       4.447964       121.0353 
 806   0.0000       4.461607       121.4065 
 807   0.0000       4.469072       121.6096 
 808   0.0000       4.480548       121.9219 
 809   0.0000       4.486689       122.0890 
 810   0.0000       4.491495       122.2198 
 811   0.0000       4.498167       122.4014 
 812   0.0000       4.526266       123.1660 
 813   0.0000       4.534905       123.4010 
 814   0.0000       4.551758       123.8596 
 815   0.0000       4.558401       124.0404 
 816   0.0000       4.567389       124.2850 
 817   0.0000       4.573618       124.4545 
 818   0.0000       4.581258       124.6624 
 819   0.0000       4.591566       124.9429 
 820   0.0000       4.611678       125.4901 
 821   0.0000       4.617110       125.6379 
 822   0.0000       4.619605       125.7058 
 823   0.0000       4.625536       125.8672 
 824   0.0000       4.636970       126.1784 
 825   0.0000       4.648860       126.5019 
 826   0.0000       4.651735       126.5801 
 827   0.0000       4.662666       126.8776 
 828   0.0000       4.689895       127.6185 
 829   0.0000       4.697392       127.8225 
 830   0.0000       4.707461       128.0965 
 831   0.0000       4.720228       128.4439 
 832   0.0000       4.739567       128.9702 
 833   0.0000       4.760181       129.5311 
 834   0.0000       4.769850       129.7942 
 835   0.0000       4.777315       129.9974 
 836   0.0000       4.784674       130.1976 
 837   0.0000       4.808923       130.8574 
 838   0.0000       4.814036       130.9966 
 839   0.0000       4.846119       131.8696 
 840   0.0000       4.850936       132.0007 
 841   0.0000       4.859122       132.2234 
 842   0.0000       4.873915       132.6260 
 843   0.0000       4.888781       133.0305 
 844   0.0000       4.912305       133.6706 
 845   0.0000       4.935767       134.3091 
 846   0.0000       5.003747       136.1589 
 847   0.0000       5.035252       137.0162 
 848   0.0000       5.072260       138.0232 
 849   0.0000       5.093894       138.6119 
 850   0.0000       5.120211       139.3280 
 851   0.0000       5.143276       139.9557 
 852   0.0000       5.146780       140.0510 
 853   0.0000       5.149068       140.1133 
 854   0.0000       5.153403       140.2312 
 855   0.0000       5.160365       140.4207 
 856   0.0000       5.188279       141.1802 
 857   0.0000       5.210055       141.7728 
 858   0.0000       5.231988       142.3696 
 859   0.0000       5.264533       143.2552 
 860   0.0000       5.315419       144.6399 
 861   0.0000       5.321820       144.8141 
 862   0.0000       5.345813       145.4670 
 863   0.0000       5.347756       145.5198 
 864   0.0000       5.351313       145.6166 
 865   0.0000       5.353956       145.6886 
 866   0.0000       5.363320       145.9434 
 867   0.0000       5.379372       146.3802 
 868   0.0000       5.390848       146.6924 
 869   0.0000       5.412982       147.2947 
 870   0.0000       5.421087       147.5153 
 871   0.0000       5.451469       148.3420 
 872   0.0000       5.489671       149.3815 
 873   0.0000       5.528268       150.4318 
 874   0.0000       5.559126       151.2715 
 875   0.0000       5.560824       151.3177 
 876   0.0000       5.574026       151.6770 
 877   0.0000       5.577125       151.7613 
 878   0.0000       5.598100       152.3320 
 879   0.0000       5.606043       152.5482 
 880   0.0000       5.628395       153.1564 
 881   0.0000       5.638931       153.4431 
 882   0.0000       5.657611       153.9514 
 883   0.0000       5.674494       154.4108 
 884   0.0000       5.740699       156.2124 
 885   0.0000       5.756867       156.6523 
 886   0.0000       5.759620       156.7272 
 887   0.0000       5.769618       156.9993 
 888   0.0000       5.773568       157.1068 
 889   0.0000       5.783916       157.3884 
 890   0.0000       5.787985       157.4991 
 891   0.0000       5.795155       157.6942 
 892   0.0000       5.802665       157.8985 
 893   0.0000       5.812771       158.1735 
 894   0.0000       5.824445       158.4912 
 895   0.0000       5.846296       159.0858 
 896   0.0000       5.848305       159.1405 
 897   0.0000       5.851018       159.2143 
 898   0.0000       5.867459       159.6617 
 899   0.0000       5.879522       159.9899 
 900   0.0000       5.890965       160.3013 
 901   0.0000       5.902912       160.6264 
 902   0.0000       5.979655       162.7147 
 903   0.0000       6.090443       165.7294 
 904   0.0000       6.107277       166.1875 
 905   0.0000       6.109519       166.2485 
 906   0.0000       6.133994       166.9145 
 907   0.0000       6.137255       167.0032 
 908   0.0000       6.142341       167.1416 
 909   0.0000       6.167988       167.8395 
 910   0.0000       6.185621       168.3193 
 911   0.0000       6.192136       168.4966 
 912   0.0000       6.207192       168.9063 
 913   0.0000       6.222677       169.3276 
 914   0.0000       6.238505       169.7583 
 915   0.0000       6.499832       176.8694 
 916   0.0000       6.587306       179.2497 
 917   0.0000       6.707800       182.5285 
 918   0.0000       6.712792       182.6643 
 919   0.0000       6.819295       185.5625 
 920   0.0000       6.829623       185.8435 
 921   0.0000       6.964078       189.5022 
 922   0.0000       7.061101       192.1423 
 923   0.0000       7.063834       192.2167 
 924   0.0000       7.124752       193.8744 
 925   0.0000       7.152008       194.6160 
 926   0.0000       7.172726       195.1798 
 927   0.0000       7.204758       196.0514 
 928   0.0000       7.260481       197.5677 
 929   0.0000       7.272250       197.8880 
 930   0.0000       7.293889       198.4768 
 931   0.0000       7.343357       199.8229 
 932   0.0000       7.420752       201.9289 
 933   0.0000       7.431124       202.2112 
 934   0.0000       7.457068       202.9171 
 935   0.0000       7.465955       203.1590 
 936   0.0000       7.484811       203.6721 
 937   0.0000       7.487668       203.7498 
 938   0.0000       7.490371       203.8233 
 939   0.0000       7.493895       203.9192 
 940   0.0000       7.500867       204.1090 
[...]
      g+4     :     0.008095
      g-4     :     0.007957
 15 O s       :     3.193061  s :     3.193061
      pz      :     1.421667  p :     4.367147
      px      :     1.464998
      py      :     1.480482
      dz2     :     0.005661  d :     0.084317
      dxz     :     0.020777
      dyz     :     0.020568
      dx2y2   :     0.027459
      dxy     :     0.009853
      f0      :     0.000464  f :     0.003006
      f+1     :     0.000312
      f-1     :     0.000146
      f+2     :     0.000901
      f-2     :     0.000397
      f+3     :     0.000343
      f-3     :     0.000443
 16 C s       :     2.732198  s :     2.732198
      pz      :     1.043894  p :     2.676925
      px      :     0.846045
      py      :     0.786986
      dz2     :     0.212247  d :     0.755469
      dxz     :     0.225113
      dyz     :     0.142481
      dx2y2   :     0.089609
      dxy     :     0.086019
      f0      :     0.010454  f :     0.039090
      f+1     :     0.013278
      f-1     :     0.008890
      f+2     :     0.000612
      f-2     :     0.002665
      f+3     :     0.000859
      f-3     :     0.002332
 17 C s       :     2.736070  s :     2.736070
      pz      :     1.047176  p :     2.617784
      px      :     0.817368
      py      :     0.753241
      dz2     :     0.190467  d :     0.770600
      dxz     :     0.205359
      dyz     :     0.159128
      dx2y2   :     0.096234
      dxy     :     0.119411
      f0      :     0.009575  f :     0.040087
      f+1     :     0.013081
      f-1     :     0.009613
      f+2     :     0.000639
      f-2     :     0.002830
      f+3     :     0.001238
      f-3     :     0.003111
 18 H s       :     0.710558  s :     0.710558
      pz      :     0.102714  p :     0.286085
      px      :     0.090373
      py      :     0.092997
      dz2     :     0.008151  d :     0.028429
      dxz     :     0.005531
      dyz     :     0.005921
      dx2y2   :     0.005170
      dxy     :     0.003655
 19 H s       :     0.710848  s :     0.710848
      pz      :     0.079114  p :     0.293066
      px      :     0.082615
      py      :     0.131337
      dz2     :     0.002743  d :     0.029130
      dxz     :     0.000583
      dyz     :     0.009220
      dx2y2   :     0.008236
      dxy     :     0.008349
 20 H s       :     0.728222  s :     0.728222
      pz      :     0.135914  p :     0.330524
      px      :     0.098852
      py      :     0.095758
      dz2     :     0.008658  d :     0.029207
      dxz     :     0.006995
      dyz     :     0.006601
      dx2y2   :     0.002990
      dxy     :     0.003963
 21 H s       :     0.706392  s :     0.706392
      pz      :     0.109166  p :     0.418298
      px      :     0.115304
      py      :     0.193828
      dz2     :     0.003487  d :     0.030864
      dxz     :     0.004160
      dyz     :     0.006894
      dx2y2   :     0.008076
      dxy     :     0.008246
 22 H s       :     0.558324  s :     0.558324
      pz      :     0.170397  p :     0.621412
      px      :     0.138624
      py      :     0.312392
      dz2     :     0.019965  d :     0.093832
      dxz     :     0.009094
      dyz     :     0.023580
      dx2y2   :     0.020419
      dxy     :     0.020774
 23 H s       :     0.631992  s :     0.631992
      pz      :     0.161227  p :     0.486957
      px      :     0.195476
      py      :     0.130254
      dz2     :     0.024556  d :     0.096188
      dxz     :     0.021678
      dyz     :     0.013621
      dx2y2   :     0.017760
      dxy     :     0.018573
 24 H s       :     0.723896  s :     0.723896
      pz      :     0.116245  p :     0.298317
      px      :     0.100863
      py      :     0.081208
      dz2     :     0.009430  d :     0.028612
      dxz     :     0.008153
      dyz     :     0.006565
      dx2y2   :     0.001838
      dxy     :     0.002626
 25 H s       :     0.699804  s :     0.699804
      pz      :     0.106257  p :     0.314024
      px      :     0.116877
      py      :     0.090890
      dz2     :     0.008552  d :     0.028287
      dxz     :     0.006998
      dyz     :     0.005558
      dx2y2   :     0.002578
      dxy     :     0.004600
 26 H s       :     0.737222  s :     0.737222
      pz      :     0.119314  p :     0.318059
      px      :     0.096942
      py      :     0.101803
      dz2     :     0.009018  d :     0.028978
      dxz     :     0.007824
      dyz     :     0.008199
      dx2y2   :     0.001762
      dxy     :     0.002175
 27 H s       :     0.728326  s :     0.728326
      pz      :     0.079139  p :     0.314465
      px      :     0.123411
      py      :     0.111915
      dz2     :     0.003000  d :     0.029160
      dxz     :     0.005202
      dyz     :     0.003486
      dx2y2   :     0.008859
      dxy     :     0.008612
 28 H s       :     0.739502  s :     0.739502
      pz      :     0.091251  p :     0.321024
      px      :     0.115560
      py      :     0.114213
      dz2     :     0.003763  d :     0.028962
      dxz     :     0.004736
      dyz     :     0.004694
      dx2y2   :     0.008468
      dxy     :     0.007302
 29 H s       :     0.736781  s :     0.736781
      pz      :     0.130184  p :     0.322047
      px      :     0.091055
      py      :     0.100808
      dz2     :     0.010082  d :     0.029351
      dxz     :     0.008815
      dyz     :     0.008988
      dx2y2   :     0.000726
      dxy     :     0.000740
 30 H s       :     0.735352  s :     0.735352
      pz      :     0.090639  p :     0.312544
      px      :     0.129465
      py      :     0.092439
      dz2     :     0.003195  d :     0.028743
      dxz     :     0.008586
      dyz     :     0.001288
      dx2y2   :     0.007871
      dxy     :     0.007803
 31 H s       :     0.718858  s :     0.718858
      pz      :     0.077402  p :     0.286769
      px      :     0.129792
      py      :     0.079575
      dz2     :     0.002637  d :     0.028388
      dxz     :     0.009255
      dyz     :     0.000168
      dx2y2   :     0.007656
      dxy     :     0.008672


                      *****************************
                      * MAYER POPULATION ANALYSIS *
                      *****************************

  NA   - Mulliken gross atomic population
  ZA   - Total nuclear charge
  QA   - Mulliken gross atomic charge
  VA   - Mayer's total valence
  BVA  - Mayer's bonded valence
  FA   - Mayer's free valence

  ATOM       NA         ZA         QA         VA         BVA        FA
  0 C      6.1205     6.0000    -0.1205     3.8944     3.8944    -0.0000
  1 C      5.4037     6.0000     0.5963     3.9061     3.9061    -0.0000
  2 O      8.8059     8.0000    -0.8059     1.4980     1.4980     0.0000
  3 O      8.7227     8.0000    -0.7227     1.4214     1.4214     0.0000
  4 C      5.7767     6.0000     0.2233     3.5630     3.5630     0.0000
  5 S     16.6171    16.0000    -0.6171     1.7963     1.7963     0.0000
  6 C      5.7281     6.0000     0.2719     3.3429     3.3429    -0.0000
  7 S     16.4681    16.0000    -0.4681     2.0737     2.0737    -0.0000
  8 C      5.8317     6.0000     0.1683     3.6048     3.6048    -0.0000
  9 S     16.5587    16.0000    -0.5587     1.8587     1.8587    -0.0000
 10 C      5.7741     6.0000     0.2259     3.5084     3.5084    -0.0000
 11 S     16.5742    16.0000    -0.5742     1.8144     1.8144    -0.0000
 12 C      5.6902     6.0000     0.3098     3.3476     3.3476    -0.0000
 13 S     16.5440    16.0000    -0.5440     1.9485     1.9485    -0.0000
 14 W     13.4281    14.0000     0.5719     7.2498     7.2498     0.0000
 15 O      8.5360     8.0000    -0.5360     1.8313     1.8313     0.0000
 16 C      5.6861     6.0000     0.3139     3.1160     3.1160    -0.0000
 17 C      5.6089     6.0000     0.3911     3.3163     3.3163    -0.0000
 18 H      1.0057     1.0000    -0.0057     1.0776     1.0776    -0.0000
 19 H      0.9407     1.0000     0.0593     1.0431     1.0431    -0.0000
 20 H      0.9770     1.0000     0.0230     1.0571     1.0571     0.0000
 21 H      1.0548     1.0000    -0.0548     1.1814     1.1814    -0.0000
 22 H      0.6040     1.0000     0.3960     0.7856     0.7856    -0.0000
 23 H      0.8570     1.0000     0.1430     1.0729     1.0729     0.0000
 24 H      1.0820     1.0000    -0.0820     0.9029     0.9029    -0.0000
 25 H      1.1384     1.0000    -0.1384     0.9772     0.9772    -0.0000
 26 H      1.1294     1.0000    -0.1294     0.9572     0.9572    -0.0000
 27 H      1.1166     1.0000    -0.1166     0.9419     0.9419    -0.0000
 28 H      0.9891     1.0000     0.0109     1.0120     1.0120    -0.0000
 29 H      1.1122     1.0000    -0.1122     0.9600     0.9600     0.0000
 30 H      1.1229     1.0000    -0.1229     0.9619     0.9619     0.0000
 31 H      0.9953     1.0000     0.0047     1.0882     1.0882    -0.0000

  Mayer bond orders larger than 0.100000
B(  0-C ,  1-C ) :   0.8730 B(  0-C , 18-H ) :   1.0303 B(  0-C , 19-H ) :   0.9962 
B(  0-C , 31-H ) :   1.0344 B(  1-C ,  2-O ) :   1.5128 B(  1-C ,  3-O ) :   1.5400 
B(  4-C ,  5-S ) :   0.7448 B(  4-C ,  9-S ) :  -0.1538 B(  4-C , 20-H ) :   1.0182 
B(  4-C , 21-H ) :   0.9367 B(  4-C , 28-H ) :   1.0166 B(  5-S , 14-W ) :   0.9681 
B(  5-S , 16-C ) :  -0.1623 B(  6-C ,  7-S ) :   0.9050 B(  6-C ,  8-C ) :   1.4659 
B(  6-C , 29-H ) :   1.1396 B(  6-C , 30-H ) :  -0.1731 B(  7-S , 14-W ) :   1.1568 
B(  8-C ,  9-S ) :   1.0467 B(  8-C , 29-H ) :  -0.1444 B(  8-C , 30-H ) :   1.1596 
B(  9-S , 14-W ) :   0.8018 B(  9-S , 21-H ) :   0.1058 B( 10-C , 11-S ) :   1.0289 
B( 10-C , 12-C ) :   1.4841 B( 10-C , 26-H ) :   1.1384 B( 10-C , 27-H ) :  -0.1780 
B( 11-S , 14-W ) :   0.8607 B( 11-S , 17-C ) :  -0.1317 B( 12-C , 13-S ) :   0.9207 
B( 12-C , 26-H ) :  -0.1478 B( 12-C , 27-H ) :   1.1631 B( 13-S , 14-W ) :   1.0634 
B( 13-S , 16-C ) :  -0.1080 B( 14-W , 16-C ) :   1.0580 B( 14-W , 17-C ) :   1.0880 
B( 15-O , 22-H ) :   0.8046 B( 15-O , 23-H ) :   1.0449 B( 16-C , 17-C ) :   1.5357 
B( 16-C , 24-H ) :   1.0024 B( 16-C , 25-H ) :  -0.1114 B( 17-C , 24-H ) :  -0.1127 
B( 17-C , 25-H ) :   1.0113 

-------
TIMINGS
-------

Total SCF time: 0 days 0 hours 2 min 41 sec 

Total time                  ....     161.752 sec
Sum of individual times     ....     160.271 sec  ( 99.1%)

Fock matrix formation       ....     149.460 sec  ( 92.4%)
  XC integration            ....       9.166 sec  (  6.1% of F)
    Basis function eval.    ....       1.766 sec  ( 19.3% of XC)
    Density eval.           ....       3.385 sec  ( 36.9% of XC)
    XC-Functional eval.     ....       0.095 sec  (  1.0% of XC)
    XC-Potential eval.      ....       2.774 sec  ( 30.3% of XC)
Diagonalization             ....       3.354 sec  (  2.1%)
Density matrix formation    ....       0.174 sec  (  0.1%)
Population analysis         ....       0.233 sec  (  0.1%)
Initial guess               ....       2.289 sec  (  1.4%)
Orbital Transformation      ....       0.000 sec  (  0.0%)
Orbital Orthonormalization  ....       0.000 sec  (  0.0%)
DIIS solution               ....       3.378 sec  (  2.1%)
Grid generation             ....       1.383 sec  (  0.9%)


           ************************************************************
           *        Program running with 24 parallel MPI-processes    *
           *              working on a common directory               *
           ************************************************************

------------------------------------------------------------------------------
                                ORCA  MP2 
------------------------------------------------------------------------------

Freezing NCore=74 chemical core electrons

-------------
RI-MP2 ENERGY
-------------
Dimension of the basis                    ... 1005
Memory devoted to MP2                     ... 5000 MB   
Data format for buffers                   ... DOUBLE
Compression type for matrix containers    ... UNCOMPRESSED
Scaling for aa/bb pairs                   ...   4.000e-01
Scaling for ab pairs                      ...   4.700e-01
Overall scaling of the MP2 energy         ...   1.000e+00
Calculating two index integrals           ... done (    0.046 sec)
Cholesky decomposition of V**-1           ... done (    0.620 sec)

-----------------
RI-TRANSFORMATION (AUX index driven)
-----------------

Dimension of the orbital-basis         ... 1005
Dimension of the aux-basis             ... 2538
Transformation of internal/external MOs...   37-  93 to   94-1004
Number Format for Storage              ... Double (8 Byte)
Integral mode                          ... Direct

First Phase: integral generation and transformation of MO indices
  Aux angular momentum 0               ... done (    0.300 sec)
  Aux angular momentum 1               ... done (    0.584 sec)
  Aux angular momentum 2               ... done (    0.768 sec)
  Aux angular momentum 3               ... done (    0.764 sec)
  Aux angular momentum 4               ... done (    0.338 sec)
  Aux angular momentum 5               ... done (    0.228 sec)
  Aux angular momentum 6               ... done (    0.297 sec)
Closing buffer VIA ( 0.98 GB; CompressionRatio= 1.00)
  Phase 1 completed in     3.422 sec
Second Phase: sorting and transformation of aux index

IA-Transformation
Memory available                       ... 4872 MB 
Max. # MO pairs treated in a batch     ... 3    
# of internal orbitals                 ... 57
# batches for internal orbitals        ... 1
Closing buffer IAV ( 0.05 GB; CompressionRatio= 1.00)
(ia|v) transformation done in     0.920 sec

  Phase 2 completed in     2.117 sec
RI-Integral transformation completed in     5.583 sec
Opening buffers                              ... done

Starting loop over batches of integrals:

Operator 0  - window                       ... ( 37- 93)x( 94-1004)
Operator 0  - Memory available             ...  5000 MB
Operator 0  - Memory needed per MO         ...  17.6 MB
Operator 0  - Number of orbitals per batch ... 3
Operator 0  - Number of batches            ... 1

OPERATOR  0   PASS   0:  MOs    37 ...   39 +   40 ...   42 +   43 ...   45 +   46 ...   48
                            +   49 ...   51 +   52 ...   54 +   55 ...   57 +   58 ...   60
                            +   61 ...   63 +   64 ...   66 +   67 ...   69 +   70 ...   72
                            +   73 ...   75 +   76 ...   78 +   79 ...   81 +   82 ...   84
                            +   85 ...   87 +   88 ...   90 +   91 ...   93
  Reading integrals       ... ok
  Internal MO  39
Time spent in pair loops =     0.626 sec
Deleting buffer (Ka|jb)[aa] ...done

-----------------------------------------------
 RI-MP2 CORRELATION ENERGY:     -1.907098352 Eh
-----------------------------------------------


-------
TIMINGS
-------

Total time                :   20.466 sec
Integral trafo            :    5.597 sec ( 27.3%)
I/O of integrals          :    0.066 sec (  0.3%)
K(i,j) Operators          :    0.441 sec (  2.2%)
T(i,j) pair energies      :    0.071 sec (  0.3%)
V-calculation             :    0.046 sec (  0.2%)
V**(-1/2)                 :    0.620 sec (  3.0%)
Gamma(ia|P)               :    0.000 sec (  0.0%)
Gamma-Trafo               :    0.000 sec (  0.0%)
D(virtual)                :    0.000 sec (  0.0%)
D(internal)               :    0.000 sec (  0.0%)
W(virtual)                :    0.000 sec (  0.0%)
W(internal)               :    0.000 sec (  0.0%)
L(virtual)                :    0.000 sec (  0.0%)
L(internal)               :    0.000 sec (  0.0%)
G(D)                      :    0.000 sec (  0.0%)
G(Z)                      :    0.000 sec (  0.0%)
Z-Vector Solution         :    0.000 sec (  0.0%)
Z-Vector Solution         :    0.000 sec (  0.0%)
3-Index Derivative 
+ Separable RIJ part      :    0.000 sec (  0.0%)
2-Index Derivative 
+ Separable RIJ part      :    0.000 sec (  0.0%)
Separable Gradient (X)    :    0.000 sec (  0.0%)


---------------------------------------
MP2 TOTAL ENERGY:    -2633.658180858 Eh
---------------------------------------


-------------------------------------------------------------------------------
                          DFT DISPERSION CORRECTION                            
                                                                               
                              DFTD3 V3.1  Rev 1                                
                          USING Becke-Johnson damping                          
-------------------------------------------------------------------------------
The DSD-BLYP/2013 functional is recognized
Active option DFTDOPT                   ...         4   

molecular C6(AA) [au] = 23800.548413 


            DFT-D V3
 parameters
 s6 scaling factor         :     0.5700 
 a1 scaling factor         :     0.0000 
 s8 scaling factor         :     0.0000 
 a2 scaling factor         :     5.4000 
 ad hoc parameters k1-k3   :    16.0000     1.3333    -4.0000 

 Edisp/kcal,au: -39.898740841201  -0.063582683982 
 E6   /kcal   : -39.898740841 
 E8   /kcal   :  -0.000000000 
 % E8         :   0.000000000 

-------------------------   ----------------
Dispersion correction           -0.063582684
-------------------------   ----------------


-------------------------   --------------------
FINAL SINGLE POINT ENERGY     -2633.721763542244
-------------------------   --------------------


                            ***************************************
                            *     ORCA property calculations      *
                            ***************************************


  WARNING: The energy has been calculated at the MP2 level but the densities
           used in the property calculations are still SCF densities
           MP2 response densities have not been calculated 
           use %mp2 Density relaxed end
           or  %mp2 Density unrelaxed end

                                    ---------------------
                                    Active property flags
                                    ---------------------
   (+) Dipole Moment


------------------------------------------------------------------------------
                       ORCA ELECTRIC PROPERTIES CALCULATION
------------------------------------------------------------------------------

Dipole Moment Calculation                       ... on
Quadrupole Moment Calculation                   ... off
Polarizability Calculation                      ... off
GBWName                                         ... TMB06_C1.gbw
Electron density file                           ... TMB06_C1.scfp
The origin for moment calculation is the CENTER OF MASS  = ( 0.124163, -0.024989 -0.035323)

-------------
DIPOLE MOMENT
-------------
                                X             Y             Z
Electronic contribution:     92.75116       4.49393     -11.68630
Nuclear contribution   :    -89.05733      -3.76163      13.00017
                        -----------------------------------------
Total Dipole Moment    :      3.69383       0.73230       1.31386
                        -----------------------------------------
Magnitude (a.u.)       :      3.98835
Magnitude (Debye)      :     10.13757



--------------------
Rotational spectrum 
--------------------
 
Rotational constants in cm-1:     0.010716     0.005373     0.005252 
Rotational constants in MHz :   321.254043   161.065395   157.440366 

 Dipole components along the rotational axes: 
x,y,z [a.u.] :     3.698154     0.594181     1.370226 
x,y,z [Debye]:     9.399960     1.510288     3.482837 

 

Timings for individual modules:

Sum of individual times         ...      189.170 sec (=   3.153 min)
GTO integral calculation        ...        5.427 sec (=   0.090 min)   2.9 %
SCF iterations                  ...      162.197 sec (=   2.703 min)  85.7 %
MP2 module                      ...       21.545 sec (=   0.359 min)  11.4 %
                             ****ORCA TERMINATED NORMALLY****
TOTAL RUN TIME: 0 days 0 hours 3 minutes 9 seconds 830 msec
