
                                 *****************
                                 * O   R   C   A *
                                 *****************

           --- An Ab Initio, DFT and Semiempirical electronic structure package ---

                  #######################################################
                  #                        -***-                        #
                  #          Department of theory and spectroscopy      #
                  #               Directorship: Frank Neese             #
                  #        Max Planck Institute fuer Kohlenforschung    #
                  #                Kaiser Wilhelm Platz 1               #
                  #                 D-45470 Muelheim/Ruhr               #
                  #                      Germany                        #
                  #                                                     #
                  #                  All rights reserved                #
                  #                        -***-                        #
                  #######################################################


                         Program Version 4.2.0 -  RELEASE  -


 With contributions from (in alphabetic order):
   Daniel Aravena         : Magnetic Suceptibility
   Michael Atanasov       : Ab Initio Ligand Field Theory (pilot matlab implementation)
   Alexander A. Auer      : GIAO ZORA, VPT2
   Ute Becker             : Parallelization
   Giovanni Bistoni       : ED, misc. LED, open-shell LED, HFLED
   Martin Brehm           : Molecular dynamics
   Dmytro Bykov           : SCF Hessian
   Vijay G. Chilkuri      : MRCI spin determinant printing, contributions to CSF-ICE
   Dipayan Datta          : RHF DLPNO-CCSD density
   Achintya Kumar Dutta   : EOM-CC, STEOM-CC
   Dmitry Ganyushin       : Spin-Orbit,Spin-Spin,Magnetic field MRCI
   Miquel Garcia          : C-PCM Hessian, Gaussian charge scheme
   Yang Guo               : DLPNO-NEVPT2, CIM, IAO-localization
   Andreas Hansen         : Spin unrestricted coupled pair/coupled cluster methods
   Benjamin Helmich-Paris : CASSCF linear response (MC-RPA)
   Lee Huntington         : MR-EOM, pCC
   Robert Izsak           : Overlap fitted RIJCOSX, COSX-SCS-MP3, EOM
   Christian Kollmar      : KDIIS, OOCD, Brueckner-CCSD(T), CCSD density
   Simone Kossmann        : Meta GGA functionals, TD-DFT gradient, OOMP2, MP2 Hessian
   Martin Krupicka        : AUTO-CI
   Lucas Lang             : DCDCAS
   Dagmar Lenk            : GEPOL surface, SMD
   Dimitrios Liakos       : Extrapolation schemes; Compound Job, initial MDCI parallelization
   Dimitrios Manganas     : Further ROCIS development; embedding schemes
   Dimitrios Pantazis     : SARC Basis sets
   Taras Petrenko         : DFT Hessian,TD-DFT gradient, ASA, ECA, R-Raman, ABS, FL, XAS/XES, NRVS
   Peter Pinski           : DLPNO-MP2, DLPNO-MP2 Gradient
   Christoph Reimann      : Effective Core Potentials
   Marius Retegan         : Local ZFS, SOC
   Christoph Riplinger    : Optimizer, TS searches, QM/MM, DLPNO-CCSD(T), (RO)-DLPNO pert. Triples
   Tobias Risthaus        : Range-separated hybrids, TD-DFT gradient, RPA, STAB
   Michael Roemelt        : Original ROCIS implementation
   Masaaki Saitow         : Open-shell DLPNO-CCSD energy and density
   Barbara Sandhoefer     : DKH picture change effects
   Avijit Sen             : IP-ROCIS
   Kantharuban Sivalingam : CASSCF convergence, NEVPT2, FIC-MRCI
   Bernardo de Souza      : ESD, SOC TD-DFT
   Georgi Stoychev        : AutoAux, RI-MP2 NMR
   Willem Van den Heuvel  : Paramagnetic NMR
   Boris Wezisla          : Elementary symmetry handling
   Frank Wennmohs         : Technical directorship


 We gratefully acknowledge several colleagues who have allowed us to
 interface, adapt or use parts of their codes:
   Stefan Grimme, W. Hujo, H. Kruse,             : VdW corrections, initial TS optimization,
                  C. Bannwarth                     DFT functionals, gCP, sTDA/sTD-DF
   Ed Valeev, F. Pavosevic, A. Kumar             : LibInt (2-el integral package), F12 methods
   Garnet Chan, S. Sharma, J. Yang, R. Olivares  : DMRG
   Ulf Ekstrom                                   : XCFun DFT Library
   Mihaly Kallay                                 : mrcc  (arbitrary order and MRCC methods)
   Andreas Klamt, Michael Diedenhofen            : otool_cosmo (COSMO solvation model)
   Jiri Pittner, Ondrej Demel                    : Mk-CCSD
   Frank Weinhold                                : gennbo (NPA and NBO analysis)
   Christopher J. Cramer and Donald G. Truhlar   : smd solvation model
   Lars Goerigk                                  : TD-DFT with DH, B97 family of functionals
   V. Asgeirsson, H. Jonsson                     : NEB implementation
   FAccTs GmbH                                   : IRC, NEB, NEB-TS, Multilevel, MM, QM/MM, CI optimization
   S Lehtola, MJT Oliveira, MAL Marques          : LibXC Library


 Your calculation uses the libint2 library for the computation of 2-el integrals
 For citations please refer to: http://libint.valeyev.net

 Your ORCA version has been built with support for libXC version: 4.2.3
 For citations please refer to: https://tddft.org/programs/libxc/

 This ORCA versions uses:
   CBLAS   interface :  Fast vector & matrix operations
   LAPACKE interface :  Fast linear algebra routines
   SCALAPACK package :  Parallel linear algebra routines


Your calculation utilizes the atom-pairwise dispersion correction
with the Becke-Johnson damping scheme (D3BJ)
Cite in your paper:
S.Grimme, S.Ehrlich, L.Goerigk, J Comput Chem, (2011), 32, 1456–1465 
S.Grimme, J.Antony, S.Ehrlich and H.Krieg, J.Chem.Phys., 132, (2010), 154104 
   

----- Orbital basis set information -----
Your calculation utilizes the basis: def2-TZVPPD
   F. Weigend and R. Ahlrichs, Phys. Chem. Chem. Phys. 7, 3297 (2005).
   D. Rappoport and F. Furche, J. Chem. Phys. 133 134105 (2010).

----- AuxC basis set information -----
Your calculation utilizes the auxiliary basis: def2-TZVPPD/C
   A. Hellweg, C. Hattig, S. Hofener and W. Klopper, Theor. Chem. Acc. 117, 587 (2007).

----- AuxJK basis set information -----
Your calculation utilizes the auxiliary basis: def2/JK
   H-Ba, Hf-Rn: F. Weigend, J. Comput. Chem. 29, 167 (2008).

================================================================================
                                        WARNINGS
                       Please study these warnings very carefully!
================================================================================


WARNING: No MP2 level density has been requested!
         To caclulate MP2 level properties use
         %mp2 Density relaxed end
         or
         %mp2 Density unrelaxed end
         Otherwise for double-hybrid DFT only the energy is correct!

WARNING: There are different parametrizations of Gershom Martin's DSD-DFs
         for use with and without D3(BJ)!
         You are using the D3(BJ) parametrized version,
         consistent with the 2013 article (S. Kozuch and J. M. L. Martin, JCC 2013, 34, 2327)

WARNING: The frozen-core approximation is turned on by default for 
         the MP2 part of double-hybrid DFT.

INFO   : the flag for use of LIBINT has been found!

================================================================================
                                       INPUT FILE
================================================================================
NAME = TMB01_R2.in
|  1> #
|  2> # TMB01_R2 ri-DSD-BLYP/2013-D3BJ/Def2-TZVPPD
|  3> #
|  4> ! rijk ri-dsd-blyp/2013 d3bj def2-tzvppd def2/jk def2-tzvppd/c grid4 nofinalgrid
|  5> 
|  6> *xyz 0 1
|  7> C        0.000000    0.000000    0.598253 
|  8> C        0.000000    0.000000   -0.598253 
|  9> H        0.000000    0.000000    1.662161 
| 10> H        0.000000    0.000000   -1.662161 
| 11> *
| 12> 
| 13> %maxcore 5000
| 14> 
| 15> %pal
| 16> nprocs = 24
| 17> end
| 18> 
| 19> 
| 20>                          ****END OF INPUT****
================================================================================

                       ****************************
                       * Single Point Calculation *
                       ****************************

---------------------------------
CARTESIAN COORDINATES (ANGSTROEM)
---------------------------------
  C      0.000000    0.000000    0.598253
  C      0.000000    0.000000   -0.598253
  H      0.000000    0.000000    1.662161
  H      0.000000    0.000000   -1.662161

----------------------------
CARTESIAN COORDINATES (A.U.)
----------------------------
  NO LB      ZA    FRAG     MASS         X           Y           Z
   0 C     6.0000    0    12.011    0.000000    0.000000    1.130534
   1 C     6.0000    0    12.011    0.000000    0.000000   -1.130534
   2 H     1.0000    0     1.008    0.000000    0.000000    3.141029
   3 H     1.0000    0     1.008    0.000000    0.000000   -3.141029

--------------------------------
INTERNAL COORDINATES (ANGSTROEM)
--------------------------------
 C      0   0   0     0.000000000000     0.00000000     0.00000000
 C      1   0   0     1.196506000000     0.00000000     0.00000000
 H      1   2   0     1.063908000000   179.99999879     0.00000000
 H      2   1   3     1.063908000000   179.99999879     0.00000000

---------------------------
INTERNAL COORDINATES (A.U.)
---------------------------
 C      0   0   0     0.000000000000     0.00000000     0.00000000
 C      1   0   0     2.261068657594     0.00000000     0.00000000
 H      1   2   0     2.010494751688   179.99999879     0.00000000
 H      2   1   3     2.010494751688   179.99999879     0.00000000

---------------------
BASIS SET INFORMATION
---------------------
There are 2 groups of distinct atoms

 Group   1 Type C   : 12s6p3d1f contracted to 6s3p3d1f pattern {621111/411/111/1}
 Group   2 Type H   : 5s3p1d contracted to 3s3p1d pattern {311/111/1}

Atom   0C    basis set group =>   1
Atom   1C    basis set group =>   1
Atom   2H    basis set group =>   2
Atom   3H    basis set group =>   2
---------------------------------
AUXILIARY/C BASIS SET INFORMATION
---------------------------------
There are 2 groups of distinct atoms

 Group   1 Type C   : 9s7p6d4f1g contracted to 9s7p5d4f1g pattern {111111111/1111111/21111/1111/1}
 Group   2 Type H   : 5s4p3d1f contracted to 5s4p3d1f pattern {11111/1111/111/1}

Atom   0C    basis set group =>   1
Atom   1C    basis set group =>   1
Atom   2H    basis set group =>   2
Atom   3H    basis set group =>   2
----------------------------------
AUXILIARY/JK BASIS SET INFORMATION
----------------------------------
There are 2 groups of distinct atoms

 Group   1 Type C   : 14s10p6d2f1g contracted to 10s8p5d1f1g pattern {5111111111/31111111/21111/2/1}
 Group   2 Type H   : 4s2p2d contracted to 2s2p2d pattern {31/11/11}

Atom   0C    basis set group =>   1
Atom   1C    basis set group =>   1
Atom   2H    basis set group =>   2
Atom   3H    basis set group =>   2


           ************************************************************
           *        Program running with 24 parallel MPI-processes    *
           *              working on a common directory               *
           ************************************************************
------------------------------------------------------------------------------
                           ORCA GTO INTEGRAL CALCULATION
                           -- RI-GTO INTEGRALS CHOSEN --
------------------------------------------------------------------------------

                         BASIS SET STATISTICS AND STARTUP INFO

Gaussian basis set:
 # of primitive gaussian shells          ...   62
 # of primitive gaussian functions       ...  142
 # of contracted shells                  ...   40
 # of contracted basis functions         ...  108
 Highest angular momentum                ...    3
 Maximum contraction depth               ...    6
Auxiliary gaussian basis set:
 # of primitive gaussian shells          ...   82
 # of primitive gaussian functions       ...  234
 # of contracted shells                  ...   62
 # of contracted aux-basis functions     ...  186
 Highest angular momentum                ...    4
 Maximum contraction depth               ...    5
Ratio of auxiliary to basis functions    ...  1.72
Integral package used                  ... LIBINT
 One Electron integrals                  ... done
 Ordering auxiliary basis shells         ... done
 Integral threshhold             Thresh  ...  1.000e-10
 Primitive cut-off               TCut    ...  1.000e-11
 Pre-screening matrix                    ... done
 Shell pair data                         ... 
 Ordering of the shell pairs             ... done (   0.000 sec) 819 of 820 pairs
 Determination of significant pairs      ... done (   0.000 sec)
 Creation of shell pair data             ... done (   0.000 sec)
 Storage of shell pair data              ... done (   0.020 sec)
 Shell pair data done in (   0.020 sec)
 Computing two index integrals           ... done
 Cholesky decomposition of the V-matrix  ... done


Timings:
 Total evaluation time                   ...   0.168 sec (  0.003 min)
 One electron matrix time                ...   0.026 sec (  0.000 min) = 15.3%
 Schwartz matrix evaluation time         ...   0.099 sec (  0.002 min) = 58.8%
 Two index repulsion integral time       ...   0.001 sec (  0.000 min) =  0.4%
 Cholesky decomposition of V             ...   0.001 sec (  0.000 min) =  0.6%
 Three index repulsion integral time     ...   0.000 sec (  0.000 min) =  0.0%



           ************************************************************
           *        Program running with 24 parallel MPI-processes    *
           *              working on a common directory               *
           ************************************************************
-------------------------------------------------------------------------------
                                 ORCA SCF
-------------------------------------------------------------------------------

------------
SCF SETTINGS
------------
Hamiltonian:
 Density Functional     Method          .... DFT(GTOs)
 Exchange Functional    Exchange        .... B88
   X-Alpha parameter    XAlpha          ....  0.666667
   Becke's b parameter  XBeta           ....  0.004200
 Correlation Functional Correlation     .... LYP
 LDA part of GGA corr.  LDAOpt          .... VWN-5
 Gradients option       PostSCFGGA      .... off
 Hybrid DFT is turned on
   Fraction HF Exchange ScalHFX         ....  0.710000
   Scaling of DF-GGA-X  ScalDFX         ....  0.290000
   Scaling of DF-GGA-C  ScalDFC         ....  0.540000
   Scaling of DF-LDA-C  ScalLDAC        ....  0.540000
   Perturbative correction              ....  1.000000
   Density functional embedding theory  .... OFF
 RI-approximation to the Coulomb term is turned on
   Number of auxiliary basis functions  .... 186
   RI-JK (J+K treated both via RI)      .... on


General Settings:
 Integral files         IntName         .... TMB01_R2
 Hartree-Fock type      HFTyp           .... RHF
 Total Charge           Charge          ....    0
 Multiplicity           Mult            ....    1
 Number of Electrons    NEL             ....   14
 Basis Dimension        Dim             ....  108
 Nuclear Repulsion      ENuc            ....     24.8588143174 Eh

Convergence Acceleration:
 DIIS                   CNVDIIS         .... on
   Start iteration      DIISMaxIt       ....    12
   Startup error        DIISStart       ....  0.200000
   # of expansion vecs  DIISMaxEq       ....     5
   Bias factor          DIISBfac        ....   1.050
   Max. coefficient     DIISMaxC        ....  10.000
 Newton-Raphson         CNVNR           .... off
 SOSCF                  CNVSOSCF        .... on
   Start iteration      SOSCFMaxIt      ....   150
   Startup grad/error   SOSCFStart      ....  0.003300
 Level Shifting         CNVShift        .... on
   Level shift para.    LevelShift      ....    0.2500
   Turn off err/grad.   ShiftErr        ....    0.0010
 Zerner damping         CNVZerner       .... off
 Static damping         CNVDamp         .... on
   Fraction old density DampFac         ....    0.7000
   Max. Damping (<1)    DampMax         ....    0.9800
   Min. Damping (>=0)   DampMin         ....    0.0000
   Turn off err/grad.   DampErr         ....    0.1000
 Fernandez-Rico         CNVRico         .... off

SCF Procedure:
 Maximum # iterations   MaxIter         ....   125
 SCF integral mode      SCFMode         .... Direct
   Integral package                     .... LIBINT
 Reset frequency        DirectResetFreq ....    20
 Integral Threshold     Thresh          ....  1.000e-10 Eh
 Primitive CutOff       TCut            ....  1.000e-11 Eh

Convergence Tolerance:
 Convergence Check Mode ConvCheckMode   .... Total+1el-Energy
 Convergence forced     ConvForced      .... 0
 Energy Change          TolE            ....  1.000e-06 Eh
 1-El. energy change                    ....  1.000e-03 Eh
 Orbital Gradient       TolG            ....  5.000e-05
 Orbital Rotation angle TolX            ....  5.000e-05
 DIIS Error             TolErr          ....  1.000e-06


Diagonalization of the overlap matrix:
Smallest eigenvalue                        ... 5.098e-07
Time for diagonalization                   ...    0.004 sec
Threshold for overlap eigenvalues          ... 1.000e-08
Number of eigenvalues below threshold      ... 0
Time for construction of square roots      ...    0.002 sec
Total time needed                          ...    0.006 sec

-------------------
DFT GRID GENERATION
-------------------

General Integration Accuracy     IntAcc      ...  4.670
Radial Grid Type                 RadialGrid  ... Gauss-Chebyshev
Angular Grid (max. acc.)         AngularGrid ... Lebedev-302
Angular grid pruning method      GridPruning ... 3 (G Style)
Weight generation scheme         WeightScheme... Becke
Basis function cutoff            BFCut       ...    1.0000e-10
Integration weight cutoff        WCut        ...    1.0000e-14
Grids for H and He will be reduced by one unit

# of grid points (after initial pruning)     ...  19212 (   0.0 sec)
# of grid points (after weights+screening)   ...  18848 (   0.0 sec)
nearest neighbour list constructed           ...    0.0 sec
Grid point re-assignment to atoms done       ...    0.0 sec
Grid point division into batches done        ...    0.1 sec
Reduced shell lists constructed in    0.1 sec

Total number of grid points                  ...    18848
Total number of batches                      ...      296
Average number of points per batch           ...       63
Average number of grid points per atom       ...     4712
Average number of shells per batch           ...    25.07 (62.68%)
Average number of basis functions per batch  ...    68.64 (63.56%)
Average number of large shells per batch     ...    20.07 (80.06%)
Average number of large basis fcns per batch ...    53.64 (78.15%)
Average number of aux-shells per batch       ...    25.07 (40.44%)
Average number of aux functions per batch    ...    68.64 (36.90%)
Maximum spatial batch extension              ...  18.61, 18.61,  2.08 au
Average spatial batch extension              ...   0.50,  0.50,  0.09 au

Time for grid setup =    0.122 sec

------------------------------
INITIAL GUESS: MODEL POTENTIAL
------------------------------
Loading Hartree-Fock densities                     ... done
Calculating cut-offs                               ... done
Setting up the integral package                    ... done
Initializing the effective Hamiltonian             ... done
Starting the Coulomb interaction                   ... done (   0.0 sec)
Reading the grid                                   ... done
Mapping shells                                     ... done
Starting the XC term evaluation                    ... done (   0.0 sec)
  promolecular density results
     # of electrons  =     13.999014444
     EX              =    -10.793818430
     EC              =     -0.038172513
     EX+EC           =    -10.831990943
Transforming the Hamiltonian                       ... done (   0.0 sec)
Diagonalizing the Hamiltonian                      ... done (   0.0 sec)
Back transforming the eigenvectors                 ... done (   0.0 sec)
Now organizing SCF variables                       ... done
                      ------------------
                      INITIAL GUESS DONE (   0.2 sec)
                      ------------------
--------------
SCF ITERATIONS
--------------
ITER       Energy         Delta-E        Max-DP      RMS-DP      [F,P]     Damp
  0    -77.0090160967   0.000000000000 0.37283120  0.00893185  0.1534742 0.7000
  1    -76.9710925118   0.037923584903 0.26431313  0.00648861  0.1359796 0.7000
                               ***Turning on DIIS***
  2    -76.9893929880  -0.018300476132 0.85359771  0.01687378  0.0824813 0.0000
  3    -77.0750076945  -0.085614706496 0.23544757  0.00679660  0.0829748 0.0000
  4    -77.0958091555  -0.020801461017 0.01355687  0.00055891  0.0324397 0.0000
  5    -77.0988861222  -0.003076966696 0.01103654  0.00027658  0.0122359 0.0000
  6    -77.0993672257  -0.000481103528 0.00419319  0.00009484  0.0038144 0.0000
                      *** Initiating the SOSCF procedure ***
                           *** Shutting down DIIS ***
                      *** Re-Reading the Fockian *** 
                      *** Removing any level shift *** 
ITER      Energy       Delta-E        Grad      Rot      Max-DP    RMS-DP
  7    -77.09942199  -0.0000547668  0.000459  0.000459  0.000700  0.000031
  8    -77.09942689  -0.0000048976  0.000180  0.000315  0.000894  0.000028
  9    -77.09942721  -0.0000003192  0.000073  0.000050  0.002423  0.000065
                 **** Energy Check signals convergence ****
              ***Rediagonalizing the Fockian in SOSCF/NRSCF***

               *****************************************************
               *                     SUCCESS                       *
               *           SCF CONVERGED AFTER  10 CYCLES          *
               *****************************************************


----------------
TOTAL SCF ENERGY
----------------

Total Energy       :          -77.09942727 Eh           -2097.98208 eV

Components:
Nuclear Repulsion  :           24.85881432 Eh             676.44273 eV
Electronic Energy  :         -101.95824159 Eh           -2774.42480 eV
One Electron Energy:         -151.98158611 Eh           -4135.62921 eV
Two Electron Energy:           50.02334452 Eh            1361.20441 eV

Virial components:
Potential Energy   :         -153.92641669 Eh           -4188.55074 eV
Kinetic Energy     :           76.82698942 Eh            2090.56866 eV
Virial Ratio       :            2.00354612


DFT components:
N(Alpha)           :        6.999997101641 electrons
N(Beta)            :        6.999997101641 electrons
N(Total)           :       13.999994203283 electrons
E(X)               :       -3.195958491343 Eh       
E(C)               :       -0.240027991006 Eh       
E(XC)              :       -3.435986482349 Eh       
DFET-embed. en.    :        0.000000000000 Eh       

---------------
SCF CONVERGENCE
---------------

  Last Energy change         ...   -6.1066e-08  Tolerance :   1.0000e-06
  Last MAX-Density change    ...    3.4793e-03  Tolerance :   1.0000e-05
  Last RMS-Density change    ...    8.9962e-05  Tolerance :   1.0000e-06
  Last Orbital Gradient      ...    5.0602e-06  Tolerance :   5.0000e-05
  Last Orbital Rotation      ...    4.5948e-06  Tolerance :   5.0000e-05

             **** THE GBW FILE WAS UPDATED (TMB01_R2.gbw) ****
             **** DENSITY FILE WAS UPDATED (TMB01_R2.scfp) ****
             **** ENERGY FILE WAS UPDATED (TMB01_R2.en.tmp) ****
             **** THE GBW FILE WAS UPDATED (TMB01_R2.gbw) ****
             **** DENSITY FILE WAS UPDATED (TMB01_R2.scfp) ****
----------------
ORBITAL ENERGIES
----------------

  NO   OCC          E(Eh)            E(eV) 
   0   2.0000     -10.864196      -295.6298 
   1   2.0000     -10.860673      -295.5339 
   2   2.0000      -0.936230       -25.4761 
   3   2.0000      -0.698927       -19.0188 
   4   2.0000      -0.619677       -16.8623 
   5   2.0000      -0.375034       -10.2052 
   6   2.0000      -0.375034       -10.2052 
   7   0.0000       0.053311         1.4507 
   8   0.0000       0.070231         1.9111 
   9   0.0000       0.099348         2.7034 
  10   0.0000       0.099348         2.7034 
  11   0.0000       0.127492         3.4692 
  12   0.0000       0.188127         5.1192 
  13   0.0000       0.195498         5.3198 
  14   0.0000       0.195498         5.3198 
  15   0.0000       0.246775         6.7151 
  16   0.0000       0.246775         6.7151 
  17   0.0000       0.267071         7.2674 
  18   0.0000       0.271836         7.3970 
  19   0.0000       0.271836         7.3970 
  20   0.0000       0.296596         8.0708 
  21   0.0000       0.345792         9.4095 
  22   0.0000       0.345984         9.4147 
  23   0.0000       0.345984         9.4147 
  24   0.0000       0.359259         9.7759 
  25   0.0000       0.375943        10.2299 
  26   0.0000       0.375943        10.2299 
  27   0.0000       0.376765        10.2523 
  28   0.0000       0.376765        10.2523 
  29   0.0000       0.519727        14.1425 
  30   0.0000       0.519727        14.1425 
  31   0.0000       0.539367        14.6769 
  32   0.0000       0.590297        16.0628 
  33   0.0000       0.683448        18.5976 
  34   0.0000       0.704051        19.1582 
  35   0.0000       0.707968        19.2648 
  36   0.0000       0.707968        19.2648 
  37   0.0000       0.802053        21.8250 
  38   0.0000       0.882107        24.0034 
  39   0.0000       0.882109        24.0034 
  40   0.0000       0.938670        25.5425 
  41   0.0000       0.938670        25.5425 
  42   0.0000       0.959051        26.0971 
  43   0.0000       1.107918        30.1480 
  44   0.0000       1.107918        30.1480 
  45   0.0000       1.127606        30.6837 
  46   0.0000       1.159049        31.5393 
  47   0.0000       1.159053        31.5394 
  48   0.0000       1.440159        39.1887 
  49   0.0000       1.440159        39.1887 
  50   0.0000       1.490748        40.5653 
  51   0.0000       1.587239        43.1910 
  52   0.0000       1.663837        45.2753 
  53   0.0000       1.663837        45.2753 
  54   0.0000       1.736636        47.2563 
  55   0.0000       1.774503        48.2867 
  56   0.0000       1.774503        48.2867 
  57   0.0000       1.899868        51.6980 
  58   0.0000       1.959309        53.3155 
  59   0.0000       2.147336        58.4320 
  60   0.0000       2.147336        58.4320 
  61   0.0000       2.319170        63.1078 
  62   0.0000       2.505172        68.1692 
  63   0.0000       2.624136        71.4064 
  64   0.0000       2.624138        71.4064 
  65   0.0000       2.707408        73.6723 
  66   0.0000       2.707408        73.6723 
  67   0.0000       2.750376        74.8415 
  68   0.0000       3.020126        82.1818 
  69   0.0000       3.020126        82.1818 
  70   0.0000       3.128966        85.1435 
  71   0.0000       3.128966        85.1435 
  72   0.0000       3.195557        86.9555 
  73   0.0000       3.195557        86.9555 
  74   0.0000       3.217489        87.5523 
  75   0.0000       3.220767        87.6415 
  76   0.0000       3.220769        87.6416 
  77   0.0000       3.230557        87.9079 
  78   0.0000       3.230562        87.9081 
  79   0.0000       3.246395        88.3389 
  80   0.0000       3.382630        92.0460 
  81   0.0000       3.425130        93.2025 
  82   0.0000       3.425130        93.2025 
  83   0.0000       3.432685        93.4081 
  84   0.0000       3.432692        93.4083 
  85   0.0000       3.802869       103.4813 
  86   0.0000       3.802869       103.4813 
  87   0.0000       3.923411       106.7614 
  88   0.0000       4.180848       113.7667 
  89   0.0000       4.180848       113.7667 
  90   0.0000       4.252151       115.7069 
  91   0.0000       4.252151       115.7069 
  92   0.0000       4.411541       120.0441 
  93   0.0000       4.411543       120.0442 
  94   0.0000       4.430344       120.5558 
  95   0.0000       4.746273       129.1526 
  96   0.0000       4.832048       131.4867 
  97   0.0000       4.832048       131.4867 
  98   0.0000       5.397803       146.8817 
  99   0.0000       5.611226       152.6892 
 100   0.0000       5.623216       153.0155 
 101   0.0000       5.623216       153.0155 
 102   0.0000       5.679759       154.5541 
 103   0.0000       5.679759       154.5541 
 104   0.0000       6.424165       174.8104 
 105   0.0000       6.738858       183.3736 
 106   0.0000      24.088646       655.4854 
 107   0.0000      24.546206       667.9362 

                    ********************************
                    * MULLIKEN POPULATION ANALYSIS *
                    ********************************

-----------------------
MULLIKEN ATOMIC CHARGES
-----------------------
   0 C :   -0.026528
   1 C :   -0.026860
   2 H :    0.026712
   3 H :    0.026677
Sum of atomic charges:    0.0000000

--------------------------------
MULLIKEN REDUCED ORBITAL CHARGES
--------------------------------
  0 C s       :     3.284033  s :     3.284033
      pz      :     0.748165  p :     2.679163
      px      :     0.965499
      py      :     0.965499
      dz2     :     0.023318  d :     0.055375
      dxz     :     0.016029
      dyz     :     0.016029
      dx2y2   :     0.000000
      dxy     :     0.000000
      f0      :     0.001787  f :     0.007957
      f+1     :     0.003085
      f-1     :     0.003085
      f+2     :     0.000000
      f-2     :     0.000000
      f+3     :     0.000000
      f-3     :     0.000000
  1 C s       :     3.284287  s :     3.284287
      pz      :     0.748252  p :     2.679249
      px      :     0.965499
      py      :     0.965499
      dz2     :     0.023309  d :     0.055366
      dxz     :     0.016029
      dyz     :     0.016029
      dx2y2   :     0.000000
      dxy     :     0.000000
      f0      :     0.001787  f :     0.007957
      f+1     :     0.003085
      f-1     :     0.003085
      f+2     :    -0.000000
      f-2     :     0.000000
      f+3     :     0.000000
      f-3     :     0.000000
  2 H s       :     0.926532  s :     0.926532
      pz      :     0.015450  p :     0.045818
      px      :     0.015184
      py      :     0.015184
      dz2     :     0.000531  d :     0.000938
      dxz     :     0.000204
      dyz     :     0.000204
      dx2y2   :     0.000000
      dxy     :     0.000000
  3 H s       :     0.926551  s :     0.926551
      pz      :     0.015466  p :     0.045834
      px      :     0.015184
      py      :     0.015184
      dz2     :     0.000531  d :     0.000938
      dxz     :     0.000204
      dyz     :     0.000204
      dx2y2   :     0.000000
      dxy     :    -0.000000


                     *******************************
                     * LOEWDIN POPULATION ANALYSIS *
                     *******************************

----------------------
LOEWDIN ATOMIC CHARGES
----------------------
   0 C :    0.098041
   1 C :    0.098041
   2 H :   -0.098041
   3 H :   -0.098041

-------------------------------
LOEWDIN REDUCED ORBITAL CHARGES
-------------------------------
  0 C s       :     2.809521  s :     2.809521
      pz      :     1.124416  p :     2.773213
      px      :     0.824399
      py      :     0.824399
      dz2     :     0.141358  d :     0.285918
      dxz     :     0.072280
      dyz     :     0.072280
      dx2y2   :     0.000000
      dxy     :     0.000000
      f0      :     0.018193  f :     0.033307
      f+1     :     0.007557
      f-1     :     0.007557
      f+2     :     0.000000
      f-2     :     0.000000
      f+3     :     0.000000
      f-3     :     0.000000
  1 C s       :     2.809522  s :     2.809522
      pz      :     1.124416  p :     2.773213
      px      :     0.824399
      py      :     0.824399
      dz2     :     0.141358  d :     0.285918
      dxz     :     0.072280
      dyz     :     0.072280
      dx2y2   :     0.000000
      dxy     :     0.000000
      f0      :     0.018193  f :     0.033307
      f+1     :     0.007557
      f-1     :     0.007557
      f+2     :     0.000000
      f-2     :     0.000000
      f+3     :     0.000000
      f-3     :     0.000000
  2 H s       :     0.755477  s :     0.755477
      pz      :     0.139039  p :     0.315130
      px      :     0.088045
      py      :     0.088045
      dz2     :     0.011995  d :     0.027434
      dxz     :     0.007719
      dyz     :     0.007719
      dx2y2   :     0.000000
      dxy     :     0.000000
  3 H s       :     0.755477  s :     0.755477
      pz      :     0.139039  p :     0.315130
      px      :     0.088045
      py      :     0.088045
      dz2     :     0.011995  d :     0.027434
      dxz     :     0.007719
      dyz     :     0.007719
      dx2y2   :     0.000000
      dxy     :     0.000000


                      *****************************
                      * MAYER POPULATION ANALYSIS *
                      *****************************

  NA   - Mulliken gross atomic population
  ZA   - Total nuclear charge
  QA   - Mulliken gross atomic charge
  VA   - Mayer's total valence
  BVA  - Mayer's bonded valence
  FA   - Mayer's free valence

  ATOM       NA         ZA         QA         VA         BVA        FA
  0 C      6.0265     6.0000    -0.0265     3.8224     3.8224     0.0000
  1 C      6.0269     6.0000    -0.0269     3.8224     3.8224     0.0000
  2 H      0.9733     1.0000     0.0267     1.0113     1.0113     0.0000
  3 H      0.9733     1.0000     0.0267     1.0114     1.0114     0.0000

  Mayer bond orders larger than 0.100000
B(  0-C ,  1-C ) :   2.8104 B(  0-C ,  2-H ) :   1.0225 B(  1-C ,  3-H ) :   1.0225 


-------
TIMINGS
-------

Total SCF time: 0 days 0 hours 0 min 1 sec 

Total time                  ....       1.347 sec
Sum of individual times     ....       1.253 sec  ( 93.1%)

Fock matrix formation       ....       1.009 sec  ( 74.9%)
  XC integration            ....       0.130 sec  ( 12.9% of F)
    Basis function eval.    ....       0.022 sec  ( 16.7% of XC)
    Density eval.           ....       0.012 sec  (  9.0% of XC)
    XC-Functional eval.     ....       0.007 sec  (  5.1% of XC)
    XC-Potential eval.      ....       0.025 sec  ( 18.8% of XC)
Diagonalization             ....       0.012 sec  (  0.9%)
Density matrix formation    ....       0.003 sec  (  0.2%)
Population analysis         ....       0.003 sec  (  0.2%)
Initial guess               ....       0.096 sec  (  7.1%)
Orbital Transformation      ....       0.000 sec  (  0.0%)
Orbital Orthonormalization  ....       0.000 sec  (  0.0%)
DIIS solution               ....       0.006 sec  (  0.4%)
SOSCF solution              ....       0.002 sec  (  0.2%)
Grid generation             ....       0.122 sec  (  9.1%)


           ************************************************************
           *        Program running with 24 parallel MPI-processes    *
           *              working on a common directory               *
           ************************************************************

------------------------------------------------------------------------------
                                ORCA  MP2 
------------------------------------------------------------------------------

Freezing NCore=4 chemical core electrons

-------------
RI-MP2 ENERGY
-------------
Dimension of the basis                    ...  108
Memory devoted to MP2                     ... 5000 MB   
Data format for buffers                   ... DOUBLE
Compression type for matrix containers    ... UNCOMPRESSED
Scaling for aa/bb pairs                   ...   4.000e-01
Scaling for ab pairs                      ...   4.700e-01
Overall scaling of the MP2 energy         ...   1.000e+00
Calculating two index integrals           ... done (    0.001 sec)
Cholesky decomposition of V**-1           ... done (    0.011 sec)

-----------------
RI-TRANSFORMATION (AUX index driven)
-----------------

Dimension of the orbital-basis         ... 108
Dimension of the aux-basis             ... 262
Transformation of internal/external MOs...    2-   6 to    7- 107
Number Format for Storage              ... Double (8 Byte)
Integral mode                          ... Direct

First Phase: integral generation and transformation of MO indices
  Aux angular momentum 0               ... done (    0.001 sec)
  Aux angular momentum 1               ... done (    0.001 sec)
  Aux angular momentum 2               ... done (    0.001 sec)
  Aux angular momentum 3               ... done (    0.001 sec)
  Aux angular momentum 4               ... done (    0.001 sec)
Closing buffer VIA ( 0.00 GB; CompressionRatio= 1.00)
  Phase 1 completed in     0.106 sec
Second Phase: sorting and transformation of aux index

IA-Transformation
Memory available                       ... 4999 MB 
Max. # MO pairs treated in a batch     ... 1    
# of internal orbitals                 ... 5
# batches for internal orbitals        ... 1
Closing buffer IAV ( 0.00 GB; CompressionRatio= 1.00)
(ia|v) transformation done in     0.002 sec

  Phase 2 completed in     0.005 sec
RI-Integral transformation completed in     0.112 sec
Opening buffers                              ... done

Starting loop over batches of integrals:

Operator 0  - window                       ... (  2-  6)x(  7-107)
Operator 0  - Memory available             ...  5000 MB
Operator 0  - Memory needed per MO         ...   0.2 MB
Operator 0  - Number of orbitals per batch ... 1
Operator 0  - Number of batches            ... 1

OPERATOR  0   PASS   0:  MOs     2 ...    2 +    3 ...    3 +    4 ...    4 +    5 ...    5
                            +    6 ...    6
  Reading integrals       ... ok
Time spent in pair loops =     0.001 sec
Deleting buffer (Ka|jb)[aa] ...done

-----------------------------------------------
 RI-MP2 CORRELATION ENERGY:     -0.159159462 Eh
-----------------------------------------------


-------
TIMINGS
-------

Total time                :    0.148 sec
Integral trafo            :    0.132 sec ( 89.5%)
I/O of integrals          :    0.000 sec (  0.1%)
K(i,j) Operators          :    0.000 sec (  0.1%)
T(i,j) pair energies      :    0.000 sec (  0.1%)
V-calculation             :    0.001 sec (  0.8%)
V**(-1/2)                 :    0.011 sec (  7.7%)
Gamma(ia|P)               :    0.000 sec (  0.0%)
Gamma-Trafo               :    0.000 sec (  0.0%)
D(virtual)                :    0.000 sec (  0.0%)
D(internal)               :    0.000 sec (  0.0%)
W(virtual)                :    0.000 sec (  0.0%)
W(internal)               :    0.000 sec (  0.0%)
L(virtual)                :    0.000 sec (  0.0%)
L(internal)               :    0.000 sec (  0.0%)
G(D)                      :    0.000 sec (  0.0%)
G(Z)                      :    0.000 sec (  0.0%)
Z-Vector Solution         :    0.000 sec (  0.0%)
Z-Vector Solution         :    0.000 sec (  0.0%)
3-Index Derivative 
+ Separable RIJ part      :    0.000 sec (  0.0%)
2-Index Derivative 
+ Separable RIJ part      :    0.000 sec (  0.0%)
Separable Gradient (X)    :    0.000 sec (  0.0%)


---------------------------------------
MP2 TOTAL ENERGY:      -77.258586733 Eh
---------------------------------------


-------------------------------------------------------------------------------
                          DFT DISPERSION CORRECTION                            
                                                                               
                              DFTD3 V3.1  Rev 1                                
                          USING Becke-Johnson damping                          
-------------------------------------------------------------------------------
The DSD-BLYP/2013 functional is recognized
Active option DFTDOPT                   ...         4   

molecular C6(AA) [au] = 206.674463 


            DFT-D V3
 parameters
 s6 scaling factor         :     0.5700 
 a1 scaling factor         :     0.0000 
 s8 scaling factor         :     0.0000 
 a2 scaling factor         :     5.4000 
 ad hoc parameters k1-k3   :    16.0000     1.3333    -4.0000 

 Edisp/kcal,au: -0.931683482867  -0.001484731979 
 E6   /kcal   :  -0.931683483 
 E8   /kcal   :  -0.000000000 
 % E8         :   0.000000000 

-------------------------   ----------------
Dispersion correction           -0.001484732
-------------------------   ----------------


-------------------------   --------------------
FINAL SINGLE POINT ENERGY       -77.260071464630
-------------------------   --------------------


                            ***************************************
                            *     ORCA property calculations      *
                            ***************************************


  WARNING: The energy has been calculated at the MP2 level but the densities
           used in the property calculations are still SCF densities
           MP2 response densities have not been calculated 
           use %mp2 Density relaxed end
           or  %mp2 Density unrelaxed end

                                    ---------------------
                                    Active property flags
                                    ---------------------
   (+) Dipole Moment


------------------------------------------------------------------------------
                       ORCA ELECTRIC PROPERTIES CALCULATION
------------------------------------------------------------------------------

Dipole Moment Calculation                       ... on
Quadrupole Moment Calculation                   ... off
Polarizability Calculation                      ... off
GBWName                                         ... TMB01_R2.gbw
Electron density file                           ... TMB01_R2.scfp
The origin for moment calculation is the CENTER OF MASS  = ( 0.000000,  0.000000  0.000000)

-------------
DIPOLE MOMENT
-------------
                                X             Y             Z
Electronic contribution:      0.00000      -0.00000       0.00000
Nuclear contribution   :      0.00000       0.00000       0.00000
                        -----------------------------------------
Total Dipole Moment    :      0.00000      -0.00000       0.00000
                        -----------------------------------------
Magnitude (a.u.)       :      0.00000
Magnitude (Debye)      :      0.00000



--------------------
Rotational spectrum 
--------------------
 
Rotational constants in cm-1:     0.000000     1.189890     1.189890 
Rotational constants in MHz :     0.000000 35672.008035 35672.008035 

 Dipole components along the rotational axes: 
x,y,z [a.u.] :     0.000000    -0.000000     0.000000 
x,y,z [Debye]:     0.000000    -0.000000     0.000000 

 

Timings for individual modules:

Sum of individual times         ...        2.815 sec (=   0.047 min)
GTO integral calculation        ...        0.521 sec (=   0.009 min)  18.5 %
SCF iterations                  ...        1.682 sec (=   0.028 min)  59.8 %
MP2 module                      ...        0.612 sec (=   0.010 min)  21.7 %
                             ****ORCA TERMINATED NORMALLY****
TOTAL RUN TIME: 0 days 0 hours 0 minutes 3 seconds 319 msec
