
                                 *****************
                                 * O   R   C   A *
                                 *****************

           --- An Ab Initio, DFT and Semiempirical electronic structure package ---

                  #######################################################
                  #                        -***-                        #
                  #          Department of theory and spectroscopy      #
                  #               Directorship: Frank Neese             #
                  #        Max Planck Institute fuer Kohlenforschung    #
                  #                Kaiser Wilhelm Platz 1               #
                  #                 D-45470 Muelheim/Ruhr               #
                  #                      Germany                        #
                  #                                                     #
                  #                  All rights reserved                #
                  #                        -***-                        #
                  #######################################################


                         Program Version 4.2.0 -  RELEASE  -


 With contributions from (in alphabetic order):
   Daniel Aravena         : Magnetic Suceptibility
   Michael Atanasov       : Ab Initio Ligand Field Theory (pilot matlab implementation)
   Alexander A. Auer      : GIAO ZORA, VPT2
   Ute Becker             : Parallelization
   Giovanni Bistoni       : ED, misc. LED, open-shell LED, HFLED
   Martin Brehm           : Molecular dynamics
   Dmytro Bykov           : SCF Hessian
   Vijay G. Chilkuri      : MRCI spin determinant printing, contributions to CSF-ICE
   Dipayan Datta          : RHF DLPNO-CCSD density
   Achintya Kumar Dutta   : EOM-CC, STEOM-CC
   Dmitry Ganyushin       : Spin-Orbit,Spin-Spin,Magnetic field MRCI
   Miquel Garcia          : C-PCM Hessian, Gaussian charge scheme
   Yang Guo               : DLPNO-NEVPT2, CIM, IAO-localization
   Andreas Hansen         : Spin unrestricted coupled pair/coupled cluster methods
   Benjamin Helmich-Paris : CASSCF linear response (MC-RPA)
   Lee Huntington         : MR-EOM, pCC
   Robert Izsak           : Overlap fitted RIJCOSX, COSX-SCS-MP3, EOM
   Christian Kollmar      : KDIIS, OOCD, Brueckner-CCSD(T), CCSD density
   Simone Kossmann        : Meta GGA functionals, TD-DFT gradient, OOMP2, MP2 Hessian
   Martin Krupicka        : AUTO-CI
   Lucas Lang             : DCDCAS
   Dagmar Lenk            : GEPOL surface, SMD
   Dimitrios Liakos       : Extrapolation schemes; Compound Job, initial MDCI parallelization
   Dimitrios Manganas     : Further ROCIS development; embedding schemes
   Dimitrios Pantazis     : SARC Basis sets
   Taras Petrenko         : DFT Hessian,TD-DFT gradient, ASA, ECA, R-Raman, ABS, FL, XAS/XES, NRVS
   Peter Pinski           : DLPNO-MP2, DLPNO-MP2 Gradient
   Christoph Reimann      : Effective Core Potentials
   Marius Retegan         : Local ZFS, SOC
   Christoph Riplinger    : Optimizer, TS searches, QM/MM, DLPNO-CCSD(T), (RO)-DLPNO pert. Triples
   Tobias Risthaus        : Range-separated hybrids, TD-DFT gradient, RPA, STAB
   Michael Roemelt        : Original ROCIS implementation
   Masaaki Saitow         : Open-shell DLPNO-CCSD energy and density
   Barbara Sandhoefer     : DKH picture change effects
   Avijit Sen             : IP-ROCIS
   Kantharuban Sivalingam : CASSCF convergence, NEVPT2, FIC-MRCI
   Bernardo de Souza      : ESD, SOC TD-DFT
   Georgi Stoychev        : AutoAux, RI-MP2 NMR
   Willem Van den Heuvel  : Paramagnetic NMR
   Boris Wezisla          : Elementary symmetry handling
   Frank Wennmohs         : Technical directorship


 We gratefully acknowledge several colleagues who have allowed us to
 interface, adapt or use parts of their codes:
   Stefan Grimme, W. Hujo, H. Kruse,             : VdW corrections, initial TS optimization,
                  C. Bannwarth                     DFT functionals, gCP, sTDA/sTD-DF
   Ed Valeev, F. Pavosevic, A. Kumar             : LibInt (2-el integral package), F12 methods
   Garnet Chan, S. Sharma, J. Yang, R. Olivares  : DMRG
   Ulf Ekstrom                                   : XCFun DFT Library
   Mihaly Kallay                                 : mrcc  (arbitrary order and MRCC methods)
   Andreas Klamt, Michael Diedenhofen            : otool_cosmo (COSMO solvation model)
   Jiri Pittner, Ondrej Demel                    : Mk-CCSD
   Frank Weinhold                                : gennbo (NPA and NBO analysis)
   Christopher J. Cramer and Donald G. Truhlar   : smd solvation model
   Lars Goerigk                                  : TD-DFT with DH, B97 family of functionals
   V. Asgeirsson, H. Jonsson                     : NEB implementation
   FAccTs GmbH                                   : IRC, NEB, NEB-TS, Multilevel, MM, QM/MM, CI optimization
   S Lehtola, MJT Oliveira, MAL Marques          : LibXC Library


 Your calculation uses the libint2 library for the computation of 2-el integrals
 For citations please refer to: http://libint.valeyev.net

 Your ORCA version has been built with support for libXC version: 4.2.3
 For citations please refer to: https://tddft.org/programs/libxc/

 This ORCA versions uses:
   CBLAS   interface :  Fast vector & matrix operations
   LAPACKE interface :  Fast linear algebra routines
   SCALAPACK package :  Parallel linear algebra routines


Your calculation utilizes the atom-pairwise dispersion correction
with the Becke-Johnson damping scheme (D3BJ)
Cite in your paper:
S.Grimme, S.Ehrlich, L.Goerigk, J Comput Chem, (2011), 32, 1456–1465 
S.Grimme, J.Antony, S.Ehrlich and H.Krieg, J.Chem.Phys., 132, (2010), 154104 
   

----- Orbital basis set information -----
Your calculation utilizes the basis: def2-TZVPPD
   F. Weigend and R. Ahlrichs, Phys. Chem. Chem. Phys. 7, 3297 (2005).
   D. Rappoport and F. Furche, J. Chem. Phys. 133 134105 (2010).

----- AuxC basis set information -----
Your calculation utilizes the auxiliary basis: def2-TZVPPD/C
   A. Hellweg, C. Hattig, S. Hofener and W. Klopper, Theor. Chem. Acc. 117, 587 (2007).

----- AuxJK basis set information -----
Your calculation utilizes the auxiliary basis: def2/JK
   H-Ba, Hf-Rn: F. Weigend, J. Comput. Chem. 29, 167 (2008).

cite the ECPs for W  [Def2-ECP] as follows:
Ce-Yb(ecp-28): M. Dolg, H. Stoll, H.Preuss, J. Chem. Phys., 1989, 90, 1730-1734.
Y-Cd(ecp-28), Hf-Hg(ecp-46): D. Andrae,U. Haeussermann, M. Dolg, H. Stoll, H. Preuss, Theor. Chim. Acta, 1990, 77, 123-141.
In-Sb(ecp-28), Tl-Bi(ecp-46): B. Metz, H. Stoll, M. Dolg, J. Chem. Phys., 2000, 113, 2563-2569.
Te-Xe(ecp-28), Po-Rn(ecp-46): K. A. Peterson, D. Figgen, E. Goll, H. Stoll, M. Dolg, J. Chem. Phys., 2003, 119, 11113-11123.
Rb(ecp-28), Cs(ecp-46): T. Leininger, A. Nicklass, W. Kuechle, H. Stoll, M. Dolg, A. Bergner, Chem. Phys. Lett., 1996, 255, 274-280.
Sr(ecp-28), Ba(ecp-46): M. Kaupp, P. V. Schleyer, H. Stoll and H. Preuss, J. Chem. Phys., 1991, 94, 1360-1366.
La(ecp-46): M. Dolg, H. Stoll, A. Savin, H. Preuss, Theor. Chim. Acta, 1989, 75, 173-194.
Lu(ecp-28): X. Cao, M. Dolg, J. Chem. Phys., 2001, 115, 7348-7355.

ECP parameters for W  [Def2-ECP] have been obtained from:
TURBOMOLE (7.0.2)

================================================================================
                                        WARNINGS
                       Please study these warnings very carefully!
================================================================================


WARNING: No MP2 level density has been requested!
         To caclulate MP2 level properties use
         %mp2 Density relaxed end
         or
         %mp2 Density unrelaxed end
         Otherwise for double-hybrid DFT only the energy is correct!

WARNING: There are different parametrizations of Gershom Martin's DSD-DFs
         for use with and without D3(BJ)!
         You are using the D3(BJ) parametrized version,
         consistent with the 2013 article (S. Kozuch and J. M. L. Martin, JCC 2013, 34, 2327)

WARNING: The frozen-core approximation is turned on by default for 
         the MP2 part of double-hybrid DFT.

INFO   : the flag for use of LIBINT has been found!

================================================================================
                                       INPUT FILE
================================================================================
NAME = TMB06_T1.in
|  1> #
|  2> # TMB06_T1 ri-DSD-BLYP/2013-D3BJ/Def2-TZVPPD
|  3> #
|  4> ! rijk ri-dsd-blyp/2013 d3bj def2-tzvppd def2/jk def2-tzvppd/c grid4 nofinalgrid
|  5> 
|  6> *xyz -2 1
|  7> C       -5.371545   -2.136160    0.336278 
|  8> C       -4.697063   -0.763740    0.262018 
|  9> O       -4.978822    0.003309   -0.707502 
| 10> O       -3.902613   -0.505987    1.212120 
| 11> C        2.635057   -0.678655    2.396830 
| 12> S        2.063323    1.004526    1.938677 
| 13> C        2.314937   -2.581636   -1.299530 
| 14> S        0.864820   -2.286095   -0.358137 
| 15> C        3.240953   -1.614445   -1.507242 
| 16> S        2.972432   -0.000985   -0.910324 
| 17> C       -0.891125    2.751712   -1.395439 
| 18> S        0.528832    2.543841   -0.360303 
| 19> C       -1.489329    1.702419   -2.015371 
| 20> S       -0.828634    0.070077   -1.896647 
| 21> W        0.627788    0.033115    0.107608 
| 22> O       -2.320739    1.386691    1.151938 
| 23> C       -0.689027   -0.837880    1.297595 
| 24> C       -0.745952    0.472117    1.605961 
| 25> H       -4.850130   -2.819358   -0.346804 
| 26> H       -5.250819   -2.525653    1.350280 
| 27> H        1.778524   -1.298220    2.681124 
| 28> H        3.117621   -1.144410    1.536216 
| 29> H       -3.029141    0.618126    1.100277 
| 30> H       -2.171098    1.699602    0.245945 
| 31> H       -1.140104   -1.782909    1.572954 
| 32> H       -0.640990    1.084034    2.487860 
| 33> H       -1.256518    3.767648   -1.529996 
| 34> H       -2.404891    1.822493   -2.590760 
| 35> H        3.371580   -0.608085    3.204035 
| 36> H        2.423780   -3.583247   -1.710229 
| 37> H        4.191166   -1.850203   -1.981855 
| 38> H       -6.431678   -2.086675    0.066661 
| 39> *
| 40> 
| 41> %maxcore 5000
| 42> 
| 43> %pal
| 44> nprocs = 24
| 45> end
| 46> 
| 47> 
| 48>                          ****END OF INPUT****
================================================================================

                       ****************************
                       * Single Point Calculation *
                       ****************************

---------------------------------
CARTESIAN COORDINATES (ANGSTROEM)
---------------------------------
  C     -5.371545   -2.136160    0.336278
  C     -4.697063   -0.763740    0.262018
  O     -4.978822    0.003309   -0.707502
  O     -3.902613   -0.505987    1.212120
  C      2.635057   -0.678655    2.396830
  S      2.063323    1.004526    1.938677
  C      2.314937   -2.581636   -1.299530
  S      0.864820   -2.286095   -0.358137
  C      3.240953   -1.614445   -1.507242
  S      2.972432   -0.000985   -0.910324
  C     -0.891125    2.751712   -1.395439
  S      0.528832    2.543841   -0.360303
  C     -1.489329    1.702419   -2.015371
  S     -0.828634    0.070077   -1.896647
  W      0.627788    0.033115    0.107608
  O     -2.320739    1.386691    1.151938
  C     -0.689027   -0.837880    1.297595
  C     -0.745952    0.472117    1.605961
  H     -4.850130   -2.819358   -0.346804
  H     -5.250819   -2.525653    1.350280
  H      1.778524   -1.298220    2.681124
  H      3.117621   -1.144410    1.536216
  H     -3.029141    0.618126    1.100277
  H     -2.171098    1.699602    0.245945
  H     -1.140104   -1.782909    1.572954
  H     -0.640990    1.084034    2.487860
  H     -1.256518    3.767648   -1.529996
  H     -2.404891    1.822493   -2.590760
  H      3.371580   -0.608085    3.204035
  H      2.423780   -3.583247   -1.710229
  H      4.191166   -1.850203   -1.981855
  H     -6.431678   -2.086675    0.066661

----------------------------
CARTESIAN COORDINATES (A.U.)
----------------------------
  NO LB      ZA    FRAG     MASS         X           Y           Z
   0 C     6.0000    0    12.011  -10.150749   -4.036757    0.635473
   1 C     6.0000    0    12.011   -8.876163   -1.443259    0.495142
   2 O     8.0000    0    15.999   -9.408610    0.006253   -1.336985
   3 O     8.0000    0    15.999   -7.374870   -0.956177    2.290575
   4 C     6.0000    0    12.011    4.979536   -1.282472    4.529352
   5 S    16.0000    0    32.060    3.899115    1.898279    3.663569
   6 C     6.0000    0    12.011    4.374597   -4.878585   -2.455756
   7 S    16.0000    0    32.060    1.634273   -4.320093   -0.676781
   8 C     6.0000    0    12.011    6.124514   -3.050859   -2.848275
   9 S    16.0000    0    32.060    5.617082   -0.001861   -1.720263
  10 C     6.0000    0    12.011   -1.683982    5.199982   -2.636998
  11 S    16.0000    0    32.060    0.999348    4.807163   -0.680874
  12 C     6.0000    0    12.011   -2.814424    3.217106   -3.808499
  13 S    16.0000    0    32.060   -1.565891    0.132426   -3.584143
  14 W    14.0000*   0   183.850    1.186347    0.062578    0.203350
  15 O     8.0000    0    15.999   -4.385561    2.620466    2.176847
  16 C     6.0000    0    12.011   -1.302072   -1.583364    2.452099
  17 C     6.0000    0    12.011   -1.409645    0.892172    3.034826
  18 H     1.0000    0     1.008   -9.165417   -5.327814   -0.655365
  19 H     1.0000    0     1.008   -9.922610   -4.772792    2.551659
  20 H     1.0000    0     1.008    3.360923   -2.453280    5.066590
  21 H     1.0000    0     1.008    5.891450   -2.162621    2.903028
  22 H     1.0000    0     1.008   -5.724247    1.168089    2.079222
  23 H     1.0000    0     1.008   -4.102781    3.211782    0.464769
  24 H     1.0000    0     1.008   -2.154484   -3.369210    2.972452
  25 H     1.0000    0     1.008   -1.211296    2.048527    4.701374
  26 H     1.0000    0     1.008   -2.374475    7.119823   -2.891273
  27 H     1.0000    0     1.008   -4.544585    3.444013   -4.895827
  28 H     1.0000    0     1.008    6.371363   -1.149114    6.054749
  29 H     1.0000    0     1.008    4.580280   -6.771356   -3.231864
  30 H     1.0000    0     1.008    7.920156   -3.496377   -3.745163
  31 H     1.0000    0     1.008  -12.154110   -3.943244    0.125971
* core charge reduced due to ECP

--------------------------------
INTERNAL COORDINATES (ANGSTROEM)
--------------------------------
 C      0   0   0     0.000000000000     0.00000000     0.00000000
 C      1   0   0     1.531005281612     0.00000000     0.00000000
 O      2   1   0     1.267959515474   118.78191294     0.00000000
 O      2   1   3     1.265022221905   115.01712807   179.38154573
 C      4   2   1     6.646388572091   138.27270964    98.17807231
 S      5   4   2     1.835723894524    67.99661809    97.76719036
 C      5   4   2     4.169759075817    77.19276986   351.29520247
 S      7   5   4     1.753968237118    60.71109240   347.52668332
 C      7   5   4     1.355030751563    75.97587171   127.24888058
 S      9   7   5     1.741168515040   120.23059556   315.02170523
 C     10   9   7     4.768621397142   128.68113036   310.80172502
 S     11  10   9     1.769461718429    38.96787593   157.59188318
 C     11  10   9     1.357637473735    87.55263929     3.92311451
 S     13  11  10     1.764979794832   121.27483835    15.75310260
 W      8   7   5     2.377359375052   110.60706142    57.46551224
 O      4   2   1     2.467423197728   122.72416531   166.93488311
 C     15   8   7     1.977044029459    75.79141844   192.49872301
 C     17  15   8     1.347004894419    74.78089788   176.21159007
 H      1   2   3     1.097831557277   108.56840867    79.80396806
 H      1   2   3     1.092922513323   108.40917165   196.46596755
 H      5   4   2     1.094683811769    44.87454429   255.54437933
 H      5   4   2     1.091078453237   107.79059777   353.48311093
 H     16   4   2     1.046515366227     5.05835422     8.63852796
 H     16   4   2     0.970118054080   111.65924194   340.78923006
 H     17  15   8     1.082761677218   144.59337185   355.64465331
 H     18  17  15     1.078519949994   137.29529246   235.53952165
 H     11  10   9     1.087999810108   145.45666243   215.60942024
 H     13  11  10     1.088000019596   121.80139811   194.56846926
 H      5   4   2     1.095000532627   142.31155083   191.59991669
 H      7   5   4     1.088000488314   138.33839949   250.09906610
 H      9   7   5     1.088000036628   120.60026945   130.45995011
 H      1   2   3     1.094999575161   111.96665919   318.72181651

---------------------------
INTERNAL COORDINATES (A.U.)
---------------------------
 C      0   0   0     0.000000000000     0.00000000     0.00000000
 C      1   0   0     2.893180691834     0.00000000     0.00000000
 O      2   1   0     2.396096233146   118.78191294     0.00000000
 O      2   1   3     2.390545552725   115.01712807   179.38154573
 C      4   2   1    12.559854180876   138.27270964    98.17807231
 S      5   4   2     3.469015418146    67.99661809    97.76719036
 C      5   4   2     7.879702697727    77.19276986   351.29520247
 S      7   5   4     3.314519615750    60.71109240   347.52668332
 C      7   5   4     2.560637023495    75.97587171   127.24888058
 S      9   7   5     3.290331646431   120.23059556   315.02170523
 C     10   9   7     9.011388476956   128.68113036   310.80172502
 S     11  10   9     3.343798052289    38.96787593   157.59188318
 C     11  10   9     2.565563014507    87.55263929     3.92311451
 S     13  11  10     3.335328444137   121.27483835    15.75310260
 W      8   7   5     4.492558140759   110.60706142    57.46551224
 O      4   2   1     4.662754100189   122.72416531   166.93488311
 C     15   8   7     3.736071770381    75.79141844   192.49872301
 C     17  15   8     2.545470351504    74.78089788   176.21159007
 H      1   2   3     2.074600984430   108.56840867    79.80396806
 H      1   2   3     2.065324235778   108.40917165   196.46596755
 H      5   4   2     2.068652607481    44.87454429   255.54437933
 H      5   4   2     2.061839467239   107.79059777   353.48311093
 H     16   4   2     1.977627437110     5.05835422     8.63852796
 H     16   4   2     1.833257439783   111.65924194   340.78923006
 H     17  15   8     2.046123038246   144.59337185   355.64465331
 H     18  17  15     2.038107335458   137.29529246   235.53952165
 H     11  10   9     2.056021674862   145.45666243   215.60942024
 H     13  11  10     2.056022070737   121.80139811   194.56846926
 H      5   4   2     2.069251123163   142.31155083   191.59991669
 H      7   5   4     2.056022956486   138.33839949   250.09906610
 H      9   7   5     2.056022102923   120.60026945   130.45995011
 H      1   2   3     2.069249313815   111.96665919   318.72181651

---------------------
BASIS SET INFORMATION
---------------------
There are 5 groups of distinct atoms

 Group   1 Type C   : 12s6p3d1f contracted to 6s3p3d1f pattern {621111/411/111/1}
 Group   2 Type O   : 12s7p3d1f contracted to 6s4p3d1f pattern {621111/4111/111/1}
 Group   3 Type S   : 15s10p4d1f contracted to 6s6p4d1f pattern {732111/511111/1111/1}
 Group   4 Type W   : 8s8p6d2f1g contracted to 6s5p3d2f1g pattern {311111/41111/411/11/1}
 Group   5 Type H   : 5s3p1d contracted to 3s3p1d pattern {311/111/1}

Atom   0C    basis set group =>   1
Atom   1C    basis set group =>   1
Atom   2O    basis set group =>   2
Atom   3O    basis set group =>   2
Atom   4C    basis set group =>   1
Atom   5S    basis set group =>   3
Atom   6C    basis set group =>   1
Atom   7S    basis set group =>   3
Atom   8C    basis set group =>   1
Atom   9S    basis set group =>   3
Atom  10C    basis set group =>   1
Atom  11S    basis set group =>   3
Atom  12C    basis set group =>   1
Atom  13S    basis set group =>   3
Atom  14W    basis set group =>   4
Atom  15O    basis set group =>   2
Atom  16C    basis set group =>   1
Atom  17C    basis set group =>   1
Atom  18H    basis set group =>   5
Atom  19H    basis set group =>   5
Atom  20H    basis set group =>   5
Atom  21H    basis set group =>   5
Atom  22H    basis set group =>   5
Atom  23H    basis set group =>   5
Atom  24H    basis set group =>   5
Atom  25H    basis set group =>   5
Atom  26H    basis set group =>   5
Atom  27H    basis set group =>   5
Atom  28H    basis set group =>   5
Atom  29H    basis set group =>   5
Atom  30H    basis set group =>   5
Atom  31H    basis set group =>   5
---------------------------------
AUXILIARY/C BASIS SET INFORMATION
---------------------------------
There are 5 groups of distinct atoms

 Group   1 Type C   : 9s7p6d4f1g contracted to 9s7p5d4f1g pattern {111111111/1111111/21111/1111/1}
 Group   2 Type O   : 9s7p6d4f1g contracted to 9s7p5d4f1g pattern {111111111/1111111/21111/1111/1}
 Group   3 Type S   : 12s9p8d6f2g contracted to 12s9p8d6f2g pattern {111111111111/111111111/11111111/111111/11}
 Group   4 Type W   : 9s9p8d5f4g3h1i contracted to 9s9p8d5f4g3h1i pattern {111111111/111111111/11111111/11111/1111/111/1}
 Group   5 Type H   : 5s4p3d1f contracted to 5s4p3d1f pattern {11111/1111/111/1}

Atom   0C    basis set group =>   1
Atom   1C    basis set group =>   1
Atom   2O    basis set group =>   2
Atom   3O    basis set group =>   2
Atom   4C    basis set group =>   1
Atom   5S    basis set group =>   3
Atom   6C    basis set group =>   1
Atom   7S    basis set group =>   3
Atom   8C    basis set group =>   1
Atom   9S    basis set group =>   3
Atom  10C    basis set group =>   1
Atom  11S    basis set group =>   3
Atom  12C    basis set group =>   1
Atom  13S    basis set group =>   3
Atom  14W    basis set group =>   4
Atom  15O    basis set group =>   2
Atom  16C    basis set group =>   1
Atom  17C    basis set group =>   1
Atom  18H    basis set group =>   5
Atom  19H    basis set group =>   5
Atom  20H    basis set group =>   5
Atom  21H    basis set group =>   5
Atom  22H    basis set group =>   5
Atom  23H    basis set group =>   5
Atom  24H    basis set group =>   5
Atom  25H    basis set group =>   5
Atom  26H    basis set group =>   5
Atom  27H    basis set group =>   5
Atom  28H    basis set group =>   5
Atom  29H    basis set group =>   5
Atom  30H    basis set group =>   5
Atom  31H    basis set group =>   5
----------------------------------
AUXILIARY/JK BASIS SET INFORMATION
----------------------------------
There are 5 groups of distinct atoms

 Group   1 Type C   : 14s10p6d2f1g contracted to 10s8p5d1f1g pattern {5111111111/31111111/21111/2/1}
 Group   2 Type O   : 14s10p6d2f1g contracted to 10s8p4d2f1g pattern {5111111111/31111111/3111/11/1}
 Group   3 Type S   : 16s12p10d4f1g contracted to 13s11p9d4f1g pattern {4111111111111/21111111111/211111111/1111/1}
 Group   4 Type W   : 13s12p11d9f5g3h2i contracted to 11s9p9d7f4g3h2i pattern {31111111111/411111111/311111111/3111111/2111/111/11}
 Group   5 Type H   : 4s2p2d contracted to 2s2p2d pattern {31/11/11}

Atom   0C    basis set group =>   1
Atom   1C    basis set group =>   1
Atom   2O    basis set group =>   2
Atom   3O    basis set group =>   2
Atom   4C    basis set group =>   1
Atom   5S    basis set group =>   3
Atom   6C    basis set group =>   1
Atom   7S    basis set group =>   3
Atom   8C    basis set group =>   1
Atom   9S    basis set group =>   3
Atom  10C    basis set group =>   1
Atom  11S    basis set group =>   3
Atom  12C    basis set group =>   1
Atom  13S    basis set group =>   3
Atom  14W    basis set group =>   4
Atom  15O    basis set group =>   2
Atom  16C    basis set group =>   1
Atom  17C    basis set group =>   1
Atom  18H    basis set group =>   5
Atom  19H    basis set group =>   5
Atom  20H    basis set group =>   5
Atom  21H    basis set group =>   5
Atom  22H    basis set group =>   5
Atom  23H    basis set group =>   5
Atom  24H    basis set group =>   5
Atom  25H    basis set group =>   5
Atom  26H    basis set group =>   5
Atom  27H    basis set group =>   5
Atom  28H    basis set group =>   5
Atom  29H    basis set group =>   5
Atom  30H    basis set group =>   5
Atom  31H    basis set group =>   5
-------------------------
ECP PARAMETER INFORMATION
-------------------------

 Group 1, Type W  ECP Def2-ECP (replacing 60 core electrons, lmax=3)

Atom  14W    ECP group =>   1



           ************************************************************
           *        Program running with 24 parallel MPI-processes    *
           *              working on a common directory               *
           ************************************************************
------------------------------------------------------------------------------
                           ORCA GTO INTEGRAL CALCULATION
                           -- RI-GTO INTEGRALS CHOSEN --
------------------------------------------------------------------------------

                         BASIS SET STATISTICS AND STARTUP INFO

Gaussian basis set:
 # of primitive gaussian shells          ...  568
 # of primitive gaussian functions       ... 1344
 # of contracted shells                  ...  359
 # of contracted basis functions         ... 1005
 Highest angular momentum                ...    4
 Maximum contraction depth               ...    7
Auxiliary gaussian basis set:
 # of primitive gaussian shells          ...  778
 # of primitive gaussian functions       ... 2410
 # of contracted shells                  ...  619
 # of contracted aux-basis functions     ... 2025
 Highest angular momentum                ...    6
 Maximum contraction depth               ...    5
Ratio of auxiliary to basis functions    ...  2.01
Integral package used                  ... LIBINT
 One Electron integrals                  
   ECP integrals                         ... done
 Ordering auxiliary basis shells         ... done
 Integral threshhold             Thresh  ...  1.000e-10
 Primitive cut-off               TCut    ...  1.000e-11
 Pre-screening matrix                    ... done
 Shell pair data                         ... 
 Ordering of the shell pairs             ... done (   0.009 sec) 49765 of 64620 pairs
 Determination of significant pairs      ... done (   0.000 sec)
 Creation of shell pair data             ... done (   0.005 sec)
 Storage of shell pair data              ... done (   0.014 sec)
 Shell pair data done in (   0.028 sec)
 Computing two index integrals           ... done
 Cholesky decomposition of the V-matrix  ... done


Timings:
 Total evaluation time                   ...   5.003 sec (  0.083 min)
 One electron matrix time                ...   4.118 sec (  0.069 min) = 82.3%
 Schwartz matrix evaluation time         ...   0.483 sec (  0.008 min) =  9.6%
 Two index repulsion integral time       ...   0.162 sec (  0.003 min) =  3.2%
 Cholesky decomposition of V             ...   0.178 sec (  0.003 min) =  3.6%
 Three index repulsion integral time     ...   0.000 sec (  0.000 min) =  0.0%



           ************************************************************
           *        Program running with 24 parallel MPI-processes    *
           *              working on a common directory               *
           ************************************************************
-------------------------------------------------------------------------------
                                 ORCA SCF
-------------------------------------------------------------------------------

------------
SCF SETTINGS
------------
Hamiltonian:
 Density Functional     Method          .... DFT(GTOs)
 Exchange Functional    Exchange        .... B88
   X-Alpha parameter    XAlpha          ....  0.666667
   Becke's b parameter  XBeta           ....  0.004200
 Correlation Functional Correlation     .... LYP
 LDA part of GGA corr.  LDAOpt          .... VWN-5
 Gradients option       PostSCFGGA      .... off
 Hybrid DFT is turned on
   Fraction HF Exchange ScalHFX         ....  0.710000
   Scaling of DF-GGA-X  ScalDFX         ....  0.290000
   Scaling of DF-GGA-C  ScalDFC         ....  0.540000
   Scaling of DF-LDA-C  ScalLDAC        ....  0.540000
   Perturbative correction              ....  1.000000
   Density functional embedding theory  .... OFF
 RI-approximation to the Coulomb term is turned on
   Number of auxiliary basis functions  .... 2025
   RI-JK (J+K treated both via RI)      .... on


General Settings:
 Integral files         IntName         .... TMB06_T1
 Hartree-Fock type      HFTyp           .... RHF
 Total Charge           Charge          ....   -2
 Multiplicity           Mult            ....    1
 Number of Electrons    NEL             ....  188
 Basis Dimension        Dim             .... 1005
 Nuclear Repulsion      ENuc            ....   2319.0967045002 Eh

Convergence Acceleration:
 DIIS                   CNVDIIS         .... on
   Start iteration      DIISMaxIt       ....    12
   Startup error        DIISStart       ....  0.200000
   # of expansion vecs  DIISMaxEq       ....     5
   Bias factor          DIISBfac        ....   1.050
   Max. coefficient     DIISMaxC        ....  10.000
 Newton-Raphson         CNVNR           .... off
 SOSCF                  CNVSOSCF        .... off
 Level Shifting         CNVShift        .... on
   Level shift para.    LevelShift      ....    0.2500
   Turn off err/grad.   ShiftErr        ....    0.0010
 Zerner damping         CNVZerner       .... off
 Static damping         CNVDamp         .... on
   Fraction old density DampFac         ....    0.7000
   Max. Damping (<1)    DampMax         ....    0.9800
   Min. Damping (>=0)   DampMin         ....    0.0000
   Turn off err/grad.   DampErr         ....    0.1000
 Fernandez-Rico         CNVRico         .... off

SCF Procedure:
 Maximum # iterations   MaxIter         ....   125
 SCF integral mode      SCFMode         .... Direct
   Integral package                     .... LIBINT
 Reset frequency        DirectResetFreq ....    20
 Integral Threshold     Thresh          ....  1.000e-10 Eh
 Primitive CutOff       TCut            ....  1.000e-11 Eh

Convergence Tolerance:
 Convergence Check Mode ConvCheckMode   .... Total+1el-Energy
 Convergence forced     ConvForced      .... 0
 Energy Change          TolE            ....  1.000e-06 Eh
 1-El. energy change                    ....  1.000e-03 Eh
 DIIS Error             TolErr          ....  1.000e-06


Diagonalization of the overlap matrix:
Smallest eigenvalue                        ... 1.211e-06
Time for diagonalization                   ...    0.159 sec
Threshold for overlap eigenvalues          ... 1.000e-08
Number of eigenvalues below threshold      ... 0
Time for construction of square roots      ...    0.135 sec
Total time needed                          ...    0.299 sec

-------------------
DFT GRID GENERATION
-------------------

General Integration Accuracy     IntAcc      ...  4.670
Radial Grid Type                 RadialGrid  ... Gauss-Chebyshev
Angular Grid (max. acc.)         AngularGrid ... Lebedev-302
Angular grid pruning method      GridPruning ... 3 (G Style)
Weight generation scheme         WeightScheme... Becke
Basis function cutoff            BFCut       ...    1.0000e-10
Integration weight cutoff        WCut        ...    1.0000e-14
Grids for H and He will be reduced by one unit

# of grid points (after initial pruning)     ... 167942 (   0.0 sec)
# of grid points (after weights+screening)   ... 149580 (   0.1 sec)
nearest neighbour list constructed           ...    0.0 sec
Grid point re-assignment to atoms done       ...    0.0 sec
Grid point division into batches done        ...    0.5 sec
Reduced shell lists constructed in    0.8 sec

Total number of grid points                  ...   149580
Total number of batches                      ...     2352
Average number of points per batch           ...       63
Average number of grid points per atom       ...     4674
Average number of shells per batch           ...   162.62 (45.30%)
Average number of basis functions per batch  ...   436.03 (43.39%)
Average number of large shells per batch     ...   110.99 (68.25%)
Average number of large basis fcns per batch ...   300.79 (68.98%)
Average number of aux-shells per batch       ...   162.62 (26.27%)
Average number of aux functions per batch    ...   436.03 (21.53%)
Maximum spatial batch extension              ...   4.35,  4.59,  3.75 au
Average spatial batch extension              ...   0.05,  0.05,  0.05 au

Time for grid setup =    1.335 sec

------------------------------
INITIAL GUESS: MODEL POTENTIAL
------------------------------
Loading Hartree-Fock densities                     ... done
  calling /sw/apps/orca/orca_4_2_0_linux_x86-64_openmpi314/orca TMB06_T1_atom74.inp > TMB06_T1_atom74.out in order to generate an atomic fitting density for atom 14 (W  with ECP) on-the-fly... 
    atom 14 (W ), assumed electronic state with S=5: 1s2 2s2 2p6 3s2 3p6 4s2 3d10 4p6 5s2 4d10 5p6 6s2 4f14 5d4           ... done
Calculating cut-offs                               ... done
Setting up the integral package                    ... done
Initializing the effective Hamiltonian             ... done
Starting the Coulomb interaction                   ... done (   0.1 sec)
Reading the grid                                   ... done
Mapping shells                                     ... done
Starting the XC term evaluation                    ... done (   0.5 sec)
  promolecular density results
     # of electrons  =    245.993959348
     EX              =   -526.362700253
     EC              =     -1.323678703
     EX+EC           =   -527.686378956
Transforming the Hamiltonian                       ... done (   0.1 sec)
Diagonalizing the Hamiltonian                      ... done (   0.1 sec)
Back transforming the eigenvectors                 ... done (   0.0 sec)
Now organizing SCF variables                       ... done
                      ------------------
                      INITIAL GUESS DONE (   3.8 sec)
                      ------------------
--------------
SCF ITERATIONS
--------------
ITER       Energy         Delta-E        Max-DP      RMS-DP      [F,P]     Damp
  0  -2630.7869453391   0.000000000000 0.81342057  0.00241968  0.3491348 0.7000
  1  -2630.4849641720   0.301981167176 0.59141843  0.00189028  0.2677701 0.7000
                               ***Turning on DIIS***
  2  -2630.6756870716  -0.190722899638 0.37615086  0.00130911  0.1699480 0.7000
  3  -2631.0608579751  -0.385170903521 0.17599140  0.00090101  0.1156978 0.7000
  4  -2631.4327583854  -0.371900410278 0.40640736  0.00214873  0.0809126 0.0000
  5  -2631.7114849044  -0.278726518979 0.15944896  0.00046396  0.0256040 0.0000
  6  -2631.7169645181  -0.005479613688 0.02915101  0.00018751  0.0218864 0.0000
  7  -2631.7188850957  -0.001920577622 0.01779964  0.00008950  0.0095941 0.0000
  8  -2631.7195713688  -0.000686273094 0.02052038  0.00008729  0.0065719 0.0000
  9  -2631.7198654014  -0.000294032574 0.01980833  0.00006155  0.0008737 0.0000
 10  -2631.7199006886  -0.000035287210 0.00488642  0.00001850  0.0003680 0.0000
 11  -2631.7199071906  -0.000006502033 0.00802378  0.00002037  0.0002013 0.0000
 12  -2631.7199101475  -0.000002956915 0.00376618  0.00001439  0.0001264 0.0000
 13  -2631.7199109424  -0.000000794841 0.00950355  0.00002085  0.0000987 0.0000
 14  -2631.7199111365  -0.000000194113 0.00807347  0.00002201  0.0000674 0.0000
 15  -2631.7199111969  -0.000000060424 0.00619171  0.00001645  0.0000236 0.0000
                 **** Energy Check signals convergence ****

               *****************************************************
               *                     SUCCESS                       *
               *           SCF CONVERGED AFTER  16 CYCLES          *
               *****************************************************


----------------
TOTAL SCF ENERGY
----------------

Total Energy       :        -2631.71991122 Eh          -71612.73951 eV

Components:
Nuclear Repulsion  :         2319.09670450 Eh           63105.82957 eV
Electronic Energy  :        -4950.81661572 Eh         -134718.56907 eV
One Electron Energy:        -8319.02121303 Eh         -226372.07574 eV
Two Electron Energy:         3368.20459731 Eh           91653.50667 eV

Virial components:
Potential Energy   :        -5216.08161724 Eh         -141936.79673 eV
Kinetic Energy     :         2584.36170602 Eh           70324.05723 eV
Virial Ratio       :            2.01832491


DFT components:
N(Alpha)           :       93.999921297318 electrons
N(Beta)            :       93.999921297318 electrons
N(Total)           :      187.999842594637 electrons
E(X)               :      -60.666362424839 Eh       
E(C)               :       -3.759010015393 Eh       
E(XC)              :      -64.425372440232 Eh       
DFET-embed. en.    :        0.000000000000 Eh       

---------------
SCF CONVERGENCE
---------------

  Last Energy change         ...   -2.1739e-08  Tolerance :   1.0000e-06
  Last MAX-Density change    ...    4.7608e-03  Tolerance :   1.0000e-05
  Last RMS-Density change    ...    1.5088e-05  Tolerance :   1.0000e-06
  Last DIIS Error            ...    2.0939e-05  Tolerance :   1.0000e-06

             **** THE GBW FILE WAS UPDATED (TMB06_T1.gbw) ****
             **** DENSITY FILE WAS UPDATED (TMB06_T1.scfp) ****
             **** ENERGY FILE WAS UPDATED (TMB06_T1.en.tmp) ****
             **** THE GBW FILE WAS UPDATED (TMB06_T1.gbw) ****
             **** DENSITY FILE WAS UPDATED (TMB06_T1.scfp) ****
----------------
ORBITAL ENERGIES
----------------

  NO   OCC          E(Eh)            E(eV) 
   0   2.0000     -90.611404     -2465.6617 
   1   2.0000     -90.589757     -2465.0726 
   2   2.0000     -90.587615     -2465.0143 
   3   2.0000     -90.578597     -2464.7689 
   4   2.0000     -90.576021     -2464.6988 
   5   2.0000     -19.805574      -538.9371 
   6   2.0000     -19.765443      -537.8451 
   7   2.0000     -19.750412      -537.4360 
   8   2.0000     -10.729431      -291.9627 
   9   2.0000     -10.669627      -290.3353 
  10   2.0000     -10.667017      -290.2643 
  11   2.0000     -10.660290      -290.0812 
  12   2.0000     -10.655131      -289.9408 
  13   2.0000     -10.651213      -289.8342 
  14   2.0000     -10.650278      -289.8088 
  15   2.0000     -10.638872      -289.4984 
  16   2.0000     -10.622651      -289.0570 
  17   2.0000      -8.356681      -227.3969 
  18   2.0000      -8.335529      -226.8213 
  19   2.0000      -8.332856      -226.7485 
  20   2.0000      -8.323918      -226.5053 
  21   2.0000      -8.321645      -226.4435 
  22   2.0000      -6.140162      -167.0823 
  23   2.0000      -6.137842      -167.0192 
  24   2.0000      -6.137389      -167.0069 
  25   2.0000      -6.119177      -166.5113 
  26   2.0000      -6.116567      -166.4403 
  27   2.0000      -6.116543      -166.4396 
  28   2.0000      -6.116091      -166.4273 
  29   2.0000      -6.114267      -166.3777 
  30   2.0000      -6.113260      -166.3503 
  31   2.0000      -6.107750      -166.2003 
  32   2.0000      -6.105416      -166.1368 
  33   2.0000      -6.105294      -166.1335 
  34   2.0000      -6.104346      -166.1077 
  35   2.0000      -6.103313      -166.0796 
  36   2.0000      -6.101421      -166.0281 
  37   2.0000      -3.090701       -84.1023 
  38   2.0000      -1.629432       -44.3391 
  39   2.0000      -1.626696       -44.2646 
  40   2.0000      -1.622341       -44.1462 
  41   2.0000      -1.025626       -27.9087 
  42   2.0000      -0.980964       -26.6934 
  43   2.0000      -0.920103       -25.0373 
  44   2.0000      -0.776799       -21.1378 
  45   2.0000      -0.757009       -20.5993 
  46   2.0000      -0.709023       -19.2935 
  47   2.0000      -0.692430       -18.8420 
  48   2.0000      -0.678031       -18.4502 
  49   2.0000      -0.654893       -17.8206 
  50   2.0000      -0.633687       -17.2435 
  51   2.0000      -0.579548       -15.7703 
  52   2.0000      -0.558783       -15.2053 
  53   2.0000      -0.524387       -14.2693 
  54   2.0000      -0.472534       -12.8583 
  55   2.0000      -0.452746       -12.3199 
  56   2.0000      -0.438079       -11.9207 
  57   2.0000      -0.421558       -11.4712 
  58   2.0000      -0.390187       -10.6175 
  59   2.0000      -0.375128       -10.2077 
  60   2.0000      -0.367892       -10.0108 
  61   2.0000      -0.357261        -9.7216 
  62   2.0000      -0.330617        -8.9965 
  63   2.0000      -0.330397        -8.9906 
  64   2.0000      -0.327441        -8.9101 
  65   2.0000      -0.321451        -8.7471 
  66   2.0000      -0.309522        -8.4225 
  67   2.0000      -0.293727        -7.9927 
  68   2.0000      -0.283104        -7.7037 
  69   2.0000      -0.266601        -7.2546 
  70   2.0000      -0.255745        -6.9592 
  71   2.0000      -0.249819        -6.7979 
  72   2.0000      -0.235657        -6.4126 
  73   2.0000      -0.222580        -6.0567 
  74   2.0000      -0.214849        -5.8463 
  75   2.0000      -0.202595        -5.5129 
  76   2.0000      -0.196410        -5.3446 
  77   2.0000      -0.184684        -5.0255 
  78   2.0000      -0.177325        -4.8253 
  79   2.0000      -0.160311        -4.3623 
  80   2.0000      -0.147815        -4.0222 
  81   2.0000      -0.138152        -3.7593 
  82   2.0000      -0.132398        -3.6027 
  83   2.0000      -0.124627        -3.3913 
  84   2.0000      -0.120670        -3.2836 
  85   2.0000      -0.116738        -3.1766 
  86   2.0000      -0.114964        -3.1283 
  87   2.0000      -0.096672        -2.6306 
  88   2.0000      -0.095144        -2.5890 
  89   2.0000      -0.081459        -2.2166 
  90   2.0000      -0.064619        -1.7584 
  91   2.0000      -0.051442        -1.3998 
  92   2.0000      -0.036999        -1.0068 
  93   2.0000      -0.007363        -0.2004 
  94   0.0000       0.189093         5.1455 
  95   0.0000       0.199495         5.4285 
  96   0.0000       0.202150         5.5008 
  97   0.0000       0.205482         5.5915 
  98   0.0000       0.211648         5.7592 
  99   0.0000       0.217419         5.9163 
 100   0.0000       0.224077         6.0974 
 101   0.0000       0.227660         6.1949 
 102   0.0000       0.234412         6.3787 
 103   0.0000       0.238843         6.4993 
 104   0.0000       0.244274         6.6470 
 105   0.0000       0.246529         6.7084 
 106   0.0000       0.253057         6.8860 
 107   0.0000       0.253569         6.9000 
 108   0.0000       0.258008         7.0207 
 109   0.0000       0.261225         7.1083 
 110   0.0000       0.262731         7.1493 
 111   0.0000       0.266150         7.2423 
 112   0.0000       0.272291         7.4094 
 113   0.0000       0.278769         7.5857 
 114   0.0000       0.282343         7.6829 
 115   0.0000       0.286379         7.7928 
 116   0.0000       0.289207         7.8697 
 117   0.0000       0.290201         7.8968 
 118   0.0000       0.298739         8.1291 
 119   0.0000       0.302745         8.2381 
 120   0.0000       0.306430         8.3384 
 121   0.0000       0.308688         8.3998 
 122   0.0000       0.315066         8.5734 
 123   0.0000       0.317874         8.6498 
 124   0.0000       0.322829         8.7846 
 125   0.0000       0.325676         8.8621 
 126   0.0000       0.326772         8.8919 
 127   0.0000       0.329719         8.9721 
 128   0.0000       0.331693         9.0258 
 129   0.0000       0.339072         9.2266 
 130   0.0000       0.342784         9.3276 
 131   0.0000       0.347557         9.4575 
 132   0.0000       0.348715         9.4890 
 133   0.0000       0.352287         9.5862 
 134   0.0000       0.359131         9.7725 
 135   0.0000       0.362407         9.8616 
 136   0.0000       0.367301         9.9948 
 137   0.0000       0.368733        10.0337 
 138   0.0000       0.371769        10.1163 
 139   0.0000       0.372868        10.1462 
 140   0.0000       0.374597        10.1933 
 141   0.0000       0.380702        10.3594 
 142   0.0000       0.382936        10.4202 
 143   0.0000       0.385353        10.4860 
 144   0.0000       0.387807        10.5528 
 145   0.0000       0.396131        10.7793 
 146   0.0000       0.398061        10.8318 
 147   0.0000       0.403537        10.9808 
 148   0.0000       0.404437        11.0053 
 149   0.0000       0.405436        11.0325 
 150   0.0000       0.410706        11.1759 
 151   0.0000       0.411876        11.2077 
 152   0.0000       0.415879        11.3166 
 153   0.0000       0.417244        11.3538 
 154   0.0000       0.421987        11.4829 
 155   0.0000       0.424563        11.5529 
 156   0.0000       0.430196        11.7062 
 157   0.0000       0.431046        11.7293 
 158   0.0000       0.441973        12.0267 
 159   0.0000       0.444216        12.0877 
 160   0.0000       0.444918        12.1068 
 161   0.0000       0.448418        12.2021 
 162   0.0000       0.450104        12.2479 
 163   0.0000       0.453919        12.3518 
 164   0.0000       0.457799        12.4573 
 165   0.0000       0.460380        12.5276 
 166   0.0000       0.463725        12.6186 
 167   0.0000       0.466593        12.6966 
 168   0.0000       0.467420        12.7191 
 169   0.0000       0.472171        12.8484 
 170   0.0000       0.474017        12.8987 
 171   0.0000       0.474650        12.9159 
 172   0.0000       0.479295        13.0423 
 173   0.0000       0.481401        13.0996 
 174   0.0000       0.485411        13.2087 
 175   0.0000       0.488565        13.2945 
 176   0.0000       0.490688        13.3523 
 177   0.0000       0.494001        13.4425 
 178   0.0000       0.497351        13.5336 
 179   0.0000       0.498125        13.5547 
 180   0.0000       0.500518        13.6198 
 181   0.0000       0.506034        13.7699 
 182   0.0000       0.509841        13.8735 
 183   0.0000       0.514521        14.0008 
 184   0.0000       0.517321        14.0770 
 185   0.0000       0.518169        14.1001 
 186   0.0000       0.522791        14.2259 
 187   0.0000       0.525957        14.3120 
 188   0.0000       0.528407        14.3787 
 189   0.0000       0.531692        14.4681 
 190   0.0000       0.535600        14.5744 
 191   0.0000       0.537435        14.6243 
 192   0.0000       0.539254        14.6738 
 193   0.0000       0.540533        14.7087 
 194   0.0000       0.545192        14.8354 
 195   0.0000       0.547655        14.9025 
 196   0.0000       0.552302        15.0289 
 197   0.0000       0.555864        15.1258 
 198   0.0000       0.559286        15.2189 
 199   0.0000       0.559506        15.2249 
 200   0.0000       0.561042        15.2667 
 201   0.0000       0.563900        15.3445 
 202   0.0000       0.567310        15.4373 
 203   0.0000       0.568482        15.4692 
 204   0.0000       0.571470        15.5505 
 205   0.0000       0.576278        15.6813 
 206   0.0000       0.579786        15.7768 
 207   0.0000       0.581220        15.8158 
 208   0.0000       0.584212        15.8972 
 209   0.0000       0.588252        16.0071 
 210   0.0000       0.590070        16.0566 
 211   0.0000       0.592707        16.1284 
 212   0.0000       0.594734        16.1835 
 213   0.0000       0.595844        16.2137 
 214   0.0000       0.599671        16.3179 
 215   0.0000       0.605857        16.4862 
 216   0.0000       0.607662        16.5353 
 217   0.0000       0.609423        16.5832 
 218   0.0000       0.610783        16.6202 
 219   0.0000       0.614585        16.7237 
 220   0.0000       0.620077        16.8732 
 221   0.0000       0.624903        17.0045 
 222   0.0000       0.626803        17.0562 
 223   0.0000       0.630666        17.1613 
 224   0.0000       0.630862        17.1666 
 225   0.0000       0.639597        17.4043 
 226   0.0000       0.640966        17.4416 
 227   0.0000       0.642292        17.4776 
 228   0.0000       0.645245        17.5580 
 229   0.0000       0.647937        17.6313 
 230   0.0000       0.652623        17.7588 
 231   0.0000       0.655857        17.8468 
 232   0.0000       0.662051        18.0153 
 233   0.0000       0.662460        18.0264 
 234   0.0000       0.665438        18.1075 
 235   0.0000       0.667214        18.1558 
 236   0.0000       0.669508        18.2183 
 237   0.0000       0.673883        18.3373 
 238   0.0000       0.678148        18.4533 
 239   0.0000       0.683264        18.5926 
 240   0.0000       0.685299        18.6479 
 241   0.0000       0.688624        18.7384 
 242   0.0000       0.690864        18.7994 
 243   0.0000       0.694551        18.8997 
 244   0.0000       0.696474        18.9520 
 245   0.0000       0.698609        19.0101 
 246   0.0000       0.700307        19.0563 
 247   0.0000       0.703041        19.1307 
 248   0.0000       0.706266        19.2185 
 249   0.0000       0.709630        19.3100 
 250   0.0000       0.713505        19.4155 
 251   0.0000       0.717204        19.5161 
 252   0.0000       0.719583        19.5808 
 253   0.0000       0.724073        19.7030 
 254   0.0000       0.727962        19.8089 
 255   0.0000       0.729548        19.8520 
 256   0.0000       0.732416        19.9301 
 257   0.0000       0.734562        19.9885 
 258   0.0000       0.741121        20.1669 
 259   0.0000       0.747115        20.3300 
 260   0.0000       0.749468        20.3941 
 261   0.0000       0.753256        20.4971 
 262   0.0000       0.756218        20.5777 
 263   0.0000       0.760621        20.6976 
 264   0.0000       0.765467        20.8294 
 265   0.0000       0.766890        20.8681 
 266   0.0000       0.770953        20.9787 
 267   0.0000       0.772094        21.0097 
 268   0.0000       0.774802        21.0834 
 269   0.0000       0.781306        21.2604 
 270   0.0000       0.783228        21.3127 
 271   0.0000       0.786209        21.3938 
 272   0.0000       0.789510        21.4836 
 273   0.0000       0.793809        21.6006 
 274   0.0000       0.799152        21.7460 
 275   0.0000       0.800138        21.7729 
 276   0.0000       0.805874        21.9289 
 277   0.0000       0.809955        22.0400 
 278   0.0000       0.813072        22.1248 
 279   0.0000       0.815478        22.1903 
 280   0.0000       0.820026        22.3140 
 281   0.0000       0.824132        22.4258 
 282   0.0000       0.828730        22.5509 
 283   0.0000       0.829497        22.5718 
 284   0.0000       0.832857        22.6632 
 285   0.0000       0.837767        22.7968 
 286   0.0000       0.840792        22.8791 
 287   0.0000       0.849382        23.1129 
 288   0.0000       0.850160        23.1340 
 289   0.0000       0.854833        23.2612 
 290   0.0000       0.862374        23.4664 
 291   0.0000       0.866027        23.5658 
 292   0.0000       0.869887        23.6708 
 293   0.0000       0.872631        23.7455 
 294   0.0000       0.877768        23.8853 
 295   0.0000       0.879718        23.9383 
 296   0.0000       0.881837        23.9960 
 297   0.0000       0.883986        24.0545 
 298   0.0000       0.888331        24.1727 
 299   0.0000       0.889123        24.1943 
 300   0.0000       0.896345        24.3908 
 301   0.0000       0.901351        24.5270 
 302   0.0000       0.905300        24.6345 
 303   0.0000       0.905753        24.6468 
 304   0.0000       0.910920        24.7874 
 305   0.0000       0.917663        24.9709 
 306   0.0000       0.919601        25.0236 
 307   0.0000       0.922016        25.0893 
 308   0.0000       0.927538        25.2396 
 309   0.0000       0.932123        25.3644 
 310   0.0000       0.933530        25.4026 
 311   0.0000       0.936201        25.4753 
 312   0.0000       0.941166        25.6104 
 313   0.0000       0.943956        25.6864 
 314   0.0000       0.947605        25.7856 
 315   0.0000       0.954705        25.9788 
 316   0.0000       0.955631        26.0040 
 317   0.0000       0.959921        26.1208 
 318   0.0000       0.964380        26.2421 
 319   0.0000       0.966607        26.3027 
 320   0.0000       0.970254        26.4020 
 321   0.0000       0.972970        26.4759 
 322   0.0000       0.974714        26.5233 
 323   0.0000       0.978183        26.6177 
 324   0.0000       0.982317        26.7302 
 325   0.0000       0.984118        26.7792 
 326   0.0000       0.989821        26.9344 
 327   0.0000       0.992254        27.0006 
 328   0.0000       0.997993        27.1568 
 329   0.0000       1.000568        27.2268 
 330   0.0000       1.003169        27.2976 
 331   0.0000       1.004109        27.3232 
 332   0.0000       1.010449        27.4957 
 333   0.0000       1.013400        27.5760 
 334   0.0000       1.014901        27.6168 
 335   0.0000       1.016300        27.6549 
 336   0.0000       1.022696        27.8290 
 337   0.0000       1.023784        27.8586 
 338   0.0000       1.024944        27.8901 
 339   0.0000       1.033593        28.1255 
 340   0.0000       1.035238        28.1703 
 341   0.0000       1.040345        28.3092 
 342   0.0000       1.041616        28.3438 
 343   0.0000       1.047557        28.5055 
 344   0.0000       1.050704        28.5911 
 345   0.0000       1.053575        28.6692 
 346   0.0000       1.056096        28.7378 
 347   0.0000       1.058276        28.7972 
 348   0.0000       1.062239        28.9050 
 349   0.0000       1.067030        29.0354 
 350   0.0000       1.070853        29.1394 
 351   0.0000       1.076441        29.2914 
 352   0.0000       1.078240        29.3404 
 353   0.0000       1.081477        29.4285 
 354   0.0000       1.087732        29.5987 
 355   0.0000       1.093826        29.7645 
 356   0.0000       1.096027        29.8244 
 357   0.0000       1.100269        29.9398 
 358   0.0000       1.102679        30.0054 
 359   0.0000       1.110443        30.2167 
 360   0.0000       1.114295        30.3215 
 361   0.0000       1.117533        30.4096 
 362   0.0000       1.121716        30.5235 
 363   0.0000       1.125423        30.6243 
 364   0.0000       1.130379        30.7592 
 365   0.0000       1.133947        30.8563 
 366   0.0000       1.137712        30.9587 
 367   0.0000       1.144720        31.1494 
 368   0.0000       1.148856        31.2620 
 369   0.0000       1.153229        31.3810 
 370   0.0000       1.154388        31.4125 
 371   0.0000       1.162498        31.6332 
 372   0.0000       1.167229        31.7619 
 373   0.0000       1.170916        31.8623 
 374   0.0000       1.175786        31.9948 
 375   0.0000       1.181963        32.1629 
 376   0.0000       1.186861        32.2961 
 377   0.0000       1.191292        32.4167 
 378   0.0000       1.192574        32.4516 
 379   0.0000       1.199783        32.6478 
 380   0.0000       1.207056        32.8457 
 381   0.0000       1.208198        32.8767 
 382   0.0000       1.215588        33.0778 
 383   0.0000       1.223492        33.2929 
 384   0.0000       1.230132        33.4736 
 385   0.0000       1.231315        33.5058 
 386   0.0000       1.241738        33.7894 
 387   0.0000       1.242337        33.8057 
 388   0.0000       1.248419        33.9712 
 389   0.0000       1.252775        34.0897 
 390   0.0000       1.262739        34.3609 
 391   0.0000       1.270152        34.5626 
 392   0.0000       1.273254        34.6470 
 393   0.0000       1.276052        34.7231 
 394   0.0000       1.282277        34.8925 
 395   0.0000       1.289951        35.1013 
 396   0.0000       1.292427        35.1687 
 397   0.0000       1.295287        35.2466 
 398   0.0000       1.304988        35.5105 
 399   0.0000       1.311694        35.6930 
 400   0.0000       1.315838        35.8058 
 401   0.0000       1.319566        35.9072 
 402   0.0000       1.323382        36.0110 
 403   0.0000       1.333284        36.2805 
 404   0.0000       1.338463        36.4214 
 405   0.0000       1.343959        36.5710 
 406   0.0000       1.345472        36.6122 
 407   0.0000       1.350381        36.7457 
 408   0.0000       1.357955        36.9518 
 409   0.0000       1.367255        37.2049 
 410   0.0000       1.379728        37.5443 
 411   0.0000       1.387803        37.7640 
 412   0.0000       1.389758        37.8172 
 413   0.0000       1.392860        37.9016 
 414   0.0000       1.401559        38.1384 
 415   0.0000       1.403732        38.1975 
 416   0.0000       1.415115        38.5072 
 417   0.0000       1.418466        38.5984 
 418   0.0000       1.425253        38.7831 
 419   0.0000       1.441556        39.2267 
 420   0.0000       1.443985        39.2928 
 421   0.0000       1.446611        39.3643 
 422   0.0000       1.456488        39.6330 
 423   0.0000       1.460778        39.7498 
 424   0.0000       1.467187        39.9242 
 425   0.0000       1.473565        40.0977 
 426   0.0000       1.475962        40.1630 
 427   0.0000       1.478374        40.2286 
 428   0.0000       1.497600        40.7518 
 429   0.0000       1.499167        40.7944 
 430   0.0000       1.510549        41.1041 
 431   0.0000       1.515539        41.2399 
 432   0.0000       1.521981        41.4152 
 433   0.0000       1.529462        41.6188 
 434   0.0000       1.530569        41.6489 
 435   0.0000       1.538356        41.8608 
 436   0.0000       1.543736        42.0072 
 437   0.0000       1.553162        42.2637 
 438   0.0000       1.558007        42.3955 
 439   0.0000       1.564818        42.5809 
 440   0.0000       1.571556        42.7642 
 441   0.0000       1.572978        42.8029 
 442   0.0000       1.581280        43.0288 
 443   0.0000       1.586224        43.1634 
 444   0.0000       1.591657        43.3112 
 445   0.0000       1.596493        43.4428 
 446   0.0000       1.603643        43.6373 
 447   0.0000       1.608175        43.7607 
 448   0.0000       1.612466        43.8774 
 449   0.0000       1.619194        44.0605 
 450   0.0000       1.626458        44.2582 
 451   0.0000       1.629793        44.3489 
 452   0.0000       1.647861        44.8406 
 453   0.0000       1.652052        44.9546 
 454   0.0000       1.657936        45.1147 
 455   0.0000       1.662073        45.2273 
 456   0.0000       1.668629        45.4057 
 457   0.0000       1.672362        45.5073 
 458   0.0000       1.684336        45.8331 
 459   0.0000       1.688248        45.9396 
 460   0.0000       1.696808        46.1725 
 461   0.0000       1.701708        46.3058 
 462   0.0000       1.705745        46.4157 
 463   0.0000       1.712670        46.6041 
 464   0.0000       1.715497        46.6811 
 465   0.0000       1.721761        46.8515 
 466   0.0000       1.735072        47.2137 
 467   0.0000       1.741761        47.3957 
 468   0.0000       1.745240        47.4904 
 469   0.0000       1.753561        47.7168 
 470   0.0000       1.755746        47.7763 
 471   0.0000       1.759500        47.8784 
 472   0.0000       1.775750        48.3206 
 473   0.0000       1.779326        48.4179 
 474   0.0000       1.785969        48.5987 
 475   0.0000       1.790456        48.7208 
 476   0.0000       1.798462        48.9386 
 477   0.0000       1.807076        49.1730 
 478   0.0000       1.808373        49.2083 
 479   0.0000       1.810977        49.2792 
 480   0.0000       1.820201        49.5302 
 481   0.0000       1.825627        49.6778 
 482   0.0000       1.832852        49.8744 
 483   0.0000       1.836931        49.9854 
 484   0.0000       1.848213        50.2924 
 485   0.0000       1.860328        50.6221 
 486   0.0000       1.867053        50.8051 
 487   0.0000       1.867454        50.8160 
 488   0.0000       1.880268        51.1647 
 489   0.0000       1.887352        51.3575 
 490   0.0000       1.900489        51.7149 
 491   0.0000       1.904794        51.8321 
 492   0.0000       1.912367        52.0381 
 493   0.0000       1.928875        52.4874 
 494   0.0000       1.934775        52.6479 
 495   0.0000       1.940713        52.8095 
 496   0.0000       1.944107        52.9019 
 497   0.0000       1.951211        53.0952 
 498   0.0000       1.957761        53.2734 
 499   0.0000       1.962717        53.4082 
 500   0.0000       1.972570        53.6764 
 501   0.0000       1.978269        53.8314 
 502   0.0000       1.988983        54.1230 
 503   0.0000       2.000617        54.4396 
 504   0.0000       2.008979        54.6671 
 505   0.0000       2.015194        54.8362 
 506   0.0000       2.020251        54.9738 
 507   0.0000       2.030721        55.2587 
 508   0.0000       2.041507        55.5522 
 509   0.0000       2.046545        55.6893 
 510   0.0000       2.052655        55.8556 
 511   0.0000       2.068089        56.2756 
 512   0.0000       2.071639        56.3722 
 513   0.0000       2.091283        56.9067 
 514   0.0000       2.097084        57.0646 
 515   0.0000       2.101318        57.1798 
 516   0.0000       2.116764        57.6001 
 517   0.0000       2.121105        57.7182 
 518   0.0000       2.123054        57.7712 
 519   0.0000       2.131662        58.0055 
 520   0.0000       2.134819        58.0914 
 521   0.0000       2.138311        58.1864 
 522   0.0000       2.142334        58.2959 
 523   0.0000       2.149627        58.4943 
 524   0.0000       2.153524        58.6004 
 525   0.0000       2.162605        58.8475 
 526   0.0000       2.166892        58.9641 
 527   0.0000       2.168313        59.0028 
 528   0.0000       2.172905        59.1277 
 529   0.0000       2.181435        59.3599 
 530   0.0000       2.186155        59.4883 
 531   0.0000       2.190262        59.6001 
 532   0.0000       2.192974        59.6738 
 533   0.0000       2.199401        59.8487 
 534   0.0000       2.207899        60.0800 
 535   0.0000       2.212339        60.2008 
 536   0.0000       2.217698        60.3466 
 537   0.0000       2.218331        60.3639 
 538   0.0000       2.223618        60.5077 
 539   0.0000       2.229188        60.6593 
 540   0.0000       2.232074        60.7378 
 541   0.0000       2.242174        61.0127 
 542   0.0000       2.247332        61.1530 
 543   0.0000       2.251873        61.2766 
 544   0.0000       2.259104        61.4734 
 545   0.0000       2.261951        61.5508 
 546   0.0000       2.269924        61.7678 
 547   0.0000       2.271815        61.8192 
 548   0.0000       2.279002        62.0148 
 549   0.0000       2.288198        62.2650 
 550   0.0000       2.296278        62.4849 
 551   0.0000       2.301602        62.6298 
 552   0.0000       2.304271        62.7024 
 553   0.0000       2.307985        62.8035 
 554   0.0000       2.318983        63.1027 
 555   0.0000       2.326863        63.3172 
 556   0.0000       2.330801        63.4243 
 557   0.0000       2.337402        63.6039 
 558   0.0000       2.342887        63.7532 
 559   0.0000       2.355207        64.0884 
 560   0.0000       2.360280        64.2265 
 561   0.0000       2.367237        64.4158 
 562   0.0000       2.370615        64.5077 
 563   0.0000       2.373919        64.5976 
 564   0.0000       2.380623        64.7801 
 565   0.0000       2.387053        64.9550 
 566   0.0000       2.399907        65.3048 
 567   0.0000       2.403216        65.3948 
 568   0.0000       2.416403        65.7537 
 569   0.0000       2.421560        65.8940 
 570   0.0000       2.427024        66.0427 
 571   0.0000       2.433866        66.2289 
 572   0.0000       2.450724        66.6876 
 573   0.0000       2.453628        66.7666 
 574   0.0000       2.463538        67.0363 
 575   0.0000       2.467569        67.1460 
 576   0.0000       2.470974        67.2386 
 577   0.0000       2.474083        67.3232 
 578   0.0000       2.484357        67.6028 
 579   0.0000       2.487878        67.6986 
 580   0.0000       2.493077        67.8401 
 581   0.0000       2.499801        68.0230 
 582   0.0000       2.505877        68.1884 
 583   0.0000       2.515588        68.4526 
 584   0.0000       2.525409        68.7199 
 585   0.0000       2.532409        68.9103 
 586   0.0000       2.542107        69.1742 
 587   0.0000       2.544242        69.2323 
 588   0.0000       2.559454        69.6463 
 589   0.0000       2.562336        69.7247 
 590   0.0000       2.570868        69.9569 
 591   0.0000       2.578005        70.1511 
 592   0.0000       2.589733        70.4702 
 593   0.0000       2.602705        70.8232 
 594   0.0000       2.608099        70.9700 
 595   0.0000       2.610316        71.0303 
 596   0.0000       2.623824        71.3979 
 597   0.0000       2.630307        71.5743 
 598   0.0000       2.637427        71.7680 
 599   0.0000       2.643168        71.9242 
 600   0.0000       2.650295        72.1182 
 601   0.0000       2.659055        72.3566 
 602   0.0000       2.661087        72.4119 
 603   0.0000       2.662882        72.4607 
 604   0.0000       2.671670        72.6998 
 605   0.0000       2.679678        72.9178 
 606   0.0000       2.685833        73.0852 
 607   0.0000       2.695948        73.3605 
 608   0.0000       2.704346        73.5890 
 609   0.0000       2.708296        73.6965 
 610   0.0000       2.717316        73.9419 
 611   0.0000       2.722363        74.0793 
 612   0.0000       2.731781        74.3356 
 613   0.0000       2.737869        74.5012 
 614   0.0000       2.744762        74.6888 
 615   0.0000       2.755916        74.9923 
 616   0.0000       2.763903        75.2096 
 617   0.0000       2.774027        75.4851 
 618   0.0000       2.786565        75.8263 
 619   0.0000       2.794536        76.0432 
 620   0.0000       2.814794        76.5944 
 621   0.0000       2.817156        76.6587 
 622   0.0000       2.822967        76.8168 
 623   0.0000       2.838523        77.2401 
 624   0.0000       2.846885        77.4677 
 625   0.0000       2.850095        77.5550 
 626   0.0000       2.868447        78.0544 
 627   0.0000       2.871654        78.1417 
 628   0.0000       2.889313        78.6222 
 629   0.0000       2.907649        79.1211 
 630   0.0000       2.917125        79.3790 
 631   0.0000       2.923888        79.5630 
 632   0.0000       2.936587        79.9086 
 633   0.0000       2.950239        80.2801 
 634   0.0000       2.965487        80.6950 
 635   0.0000       2.975512        80.9678 
 636   0.0000       2.984010        81.1990 
 637   0.0000       2.985329        81.2349 
 638   0.0000       3.003443        81.7278 
 639   0.0000       3.020987        82.2052 
 640   0.0000       3.038486        82.6814 
 641   0.0000       3.044198        82.8368 
 642   0.0000       3.053829        83.0989 
 643   0.0000       3.065385        83.4134 
 644   0.0000       3.069884        83.5358 
 645   0.0000       3.080092        83.8136 
 646   0.0000       3.093906        84.1895 
 647   0.0000       3.120524        84.9138 
 648   0.0000       3.129795        85.1660 
 649   0.0000       3.132896        85.2504 
 650   0.0000       3.139972        85.4430 
 651   0.0000       3.168239        86.2122 
 652   0.0000       3.176260        86.4304 
 653   0.0000       3.185935        86.6937 
 654   0.0000       3.189289        86.7850 
 655   0.0000       3.199786        87.0706 
 656   0.0000       3.219924        87.6186 
 657   0.0000       3.240366        88.1748 
 658   0.0000       3.249666        88.4279 
 659   0.0000       3.254132        88.5494 
 660   0.0000       3.260129        88.7126 
 661   0.0000       3.269095        88.9566 
 662   0.0000       3.274894        89.1144 
 663   0.0000       3.279225        89.2322 
 664   0.0000       3.299360        89.7802 
 665   0.0000       3.314489        90.1918 
 666   0.0000       3.329607        90.6032 
 667   0.0000       3.332630        90.6855 
 668   0.0000       3.337959        90.8305 
 669   0.0000       3.363385        91.5224 
 670   0.0000       3.376708        91.8849 
 671   0.0000       3.389780        92.2406 
 672   0.0000       3.412771        92.8662 
 673   0.0000       3.419536        93.0503 
 674   0.0000       3.428249        93.2874 
 675   0.0000       3.433100        93.4194 
 676   0.0000       3.439631        93.5971 
 677   0.0000       3.443811        93.7109 
 678   0.0000       3.451556        93.9216 
 679   0.0000       3.464491        94.2736 
 680   0.0000       3.470657        94.4414 
 681   0.0000       3.476638        94.6041 
 682   0.0000       3.479883        94.6924 
 683   0.0000       3.485163        94.8361 
 684   0.0000       3.493576        95.0650 
 685   0.0000       3.503225        95.3276 
 686   0.0000       3.508238        95.4640 
 687   0.0000       3.511588        95.5552 
 688   0.0000       3.512882        95.5904 
 689   0.0000       3.531285        96.0911 
 690   0.0000       3.541673        96.3738 
 691   0.0000       3.547338        96.5280 
 692   0.0000       3.555850        96.7596 
 693   0.0000       3.563060        96.9558 
 694   0.0000       3.573872        97.2500 
 695   0.0000       3.579718        97.4091 
 696   0.0000       3.595207        97.8306 
 697   0.0000       3.602866        98.0390 
 698   0.0000       3.614307        98.3503 
 699   0.0000       3.618882        98.4748 
 700   0.0000       3.622056        98.5612 
 701   0.0000       3.624242        98.6207 
 702   0.0000       3.627100        98.6984 
 703   0.0000       3.629615        98.7668 
 704   0.0000       3.640789        99.0709 
 705   0.0000       3.646037        99.2137 
 706   0.0000       3.652614        99.3927 
 707   0.0000       3.663118        99.6785 
 708   0.0000       3.682572       100.2079 
 709   0.0000       3.685113       100.2770 
 710   0.0000       3.694221       100.5249 
 711   0.0000       3.708442       100.9118 
 712   0.0000       3.709710       100.9463 
 713   0.0000       3.717611       101.1613 
 714   0.0000       3.724269       101.3425 
 715   0.0000       3.729135       101.4749 
 716   0.0000       3.738180       101.7210 
 717   0.0000       3.744330       101.8884 
 718   0.0000       3.753307       102.1327 
 719   0.0000       3.758740       102.2805 
 720   0.0000       3.760840       102.3376 
 721   0.0000       3.768007       102.5327 
 722   0.0000       3.774337       102.7049 
 723   0.0000       3.784872       102.9916 
 724   0.0000       3.795403       103.2782 
 725   0.0000       3.803613       103.5016 
 726   0.0000       3.811250       103.7094 
 727   0.0000       3.814036       103.7852 
 728   0.0000       3.822758       104.0225 
 729   0.0000       3.830263       104.2268 
 730   0.0000       3.840279       104.4993 
 731   0.0000       3.848410       104.7206 
 732   0.0000       3.859685       105.0274 
 733   0.0000       3.877194       105.5038 
 734   0.0000       3.884023       105.6896 
 735   0.0000       3.892534       105.9212 
 736   0.0000       3.895242       105.9949 
 737   0.0000       3.900240       106.1309 
 738   0.0000       3.906089       106.2901 
 739   0.0000       3.911891       106.4480 
 740   0.0000       3.918084       106.6165 
 741   0.0000       3.933826       107.0449 
 742   0.0000       3.938021       107.1590 
 743   0.0000       3.944849       107.3448 
 744   0.0000       3.949646       107.4753 
 745   0.0000       3.955215       107.6269 
 746   0.0000       3.956144       107.6521 
 747   0.0000       3.959914       107.7547 
 748   0.0000       3.966616       107.9371 
 749   0.0000       3.975377       108.1755 
 750   0.0000       3.977252       108.2265 
 751   0.0000       3.986780       108.4858 
 752   0.0000       3.991600       108.6170 
 753   0.0000       3.998769       108.8120 
 754   0.0000       4.009117       109.0936 
 755   0.0000       4.019355       109.3722 
 756   0.0000       4.026002       109.5531 
 757   0.0000       4.033710       109.7628 
 758   0.0000       4.046362       110.1071 
 759   0.0000       4.066830       110.6641 
 760   0.0000       4.071207       110.7832 
 761   0.0000       4.074646       110.8767 
 762   0.0000       4.083379       111.1144 
 763   0.0000       4.094047       111.4047 
 764   0.0000       4.095051       111.4320 
 765   0.0000       4.105761       111.7234 
 766   0.0000       4.112393       111.9039 
 767   0.0000       4.127762       112.3221 
 768   0.0000       4.132717       112.4569 
 769   0.0000       4.140824       112.6775 
 770   0.0000       4.154925       113.0613 
 771   0.0000       4.173482       113.5662 
 772   0.0000       4.176882       113.6587 
 773   0.0000       4.185513       113.8936 
 774   0.0000       4.196774       114.2000 
 775   0.0000       4.209120       114.5360 
 776   0.0000       4.213944       114.6672 
 777   0.0000       4.224301       114.9491 
 778   0.0000       4.240780       115.3975 
 779   0.0000       4.247225       115.5729 
 780   0.0000       4.261185       115.9527 
 781   0.0000       4.274950       116.3273 
 782   0.0000       4.286028       116.6288 
 783   0.0000       4.298456       116.9669 
 784   0.0000       4.301468       117.0489 
 785   0.0000       4.308785       117.2480 
 786   0.0000       4.318950       117.5246 
 787   0.0000       4.320487       117.5664 
 788   0.0000       4.332233       117.8860 
 789   0.0000       4.334972       117.9606 
 790   0.0000       4.338127       118.0464 
 791   0.0000       4.340360       118.1072 
 792   0.0000       4.352042       118.4251 
 793   0.0000       4.360912       118.6664 
 794   0.0000       4.368659       118.8773 
 795   0.0000       4.379898       119.1831 
 796   0.0000       4.389471       119.4436 
 797   0.0000       4.398035       119.6766 
 798   0.0000       4.407832       119.9432 
 799   0.0000       4.418297       120.2280 
 800   0.0000       4.420693       120.2932 
 801   0.0000       4.448571       121.0518 
 802   0.0000       4.455709       121.2460 
 803   0.0000       4.484272       122.0233 
 804   0.0000       4.489386       122.1624 
 805   0.0000       4.500737       122.4713 
 806   0.0000       4.523443       123.0892 
 807   0.0000       4.535263       123.4108 
 808   0.0000       4.542634       123.6113 
 809   0.0000       4.550532       123.8263 
 810   0.0000       4.562772       124.1593 
 811   0.0000       4.574170       124.4695 
 812   0.0000       4.577302       124.5547 
 813   0.0000       4.591034       124.9284 
 814   0.0000       4.612919       125.5239 
 815   0.0000       4.623041       125.7993 
 816   0.0000       4.629736       125.9815 
 817   0.0000       4.634354       126.1072 
 818   0.0000       4.647400       126.4622 
 819   0.0000       4.652076       126.5894 
 820   0.0000       4.667088       126.9979 
 821   0.0000       4.681026       127.3772 
 822   0.0000       4.689503       127.6079 
 823   0.0000       4.698834       127.8618 
 824   0.0000       4.713789       128.2687 
 825   0.0000       4.720596       128.4540 
 826   0.0000       4.728004       128.6555 
 827   0.0000       4.731475       128.7500 
 828   0.0000       4.741722       129.0288 
 829   0.0000       4.781068       130.0995 
 830   0.0000       4.798105       130.5631 
 831   0.0000       4.810082       130.8890 
 832   0.0000       4.811342       130.9233 
 833   0.0000       4.819500       131.1453 
 834   0.0000       4.833929       131.5379 
 835   0.0000       4.838249       131.6554 
 836   0.0000       4.848180       131.9257 
 837   0.0000       4.851601       132.0188 
 838   0.0000       4.869622       132.5091 
 839   0.0000       4.886130       132.9583 
 840   0.0000       4.893606       133.1618 
 841   0.0000       4.902069       133.3921 
 842   0.0000       4.930302       134.1603 
 843   0.0000       4.948703       134.6610 
 844   0.0000       4.974967       135.3757 
 845   0.0000       5.006942       136.2458 
 846   0.0000       5.015141       136.4689 
 847   0.0000       5.064483       137.8116 
 848   0.0000       5.082767       138.3091 
 849   0.0000       5.090215       138.5118 
 850   0.0000       5.117505       139.2544 
 851   0.0000       5.122279       139.3843 
 852   0.0000       5.140081       139.8687 
 853   0.0000       5.155176       140.2795 
 854   0.0000       5.163630       140.5095 
 855   0.0000       5.170940       140.7084 
 856   0.0000       5.204233       141.6144 
 857   0.0000       5.224310       142.1607 
 858   0.0000       5.285381       143.8225 
 859   0.0000       5.310158       144.4968 
 860   0.0000       5.340036       145.3098 
 861   0.0000       5.348343       145.5358 
 862   0.0000       5.364185       145.9669 
 863   0.0000       5.367303       146.0517 
 864   0.0000       5.397713       146.8792 
 865   0.0000       5.402756       147.0165 
 866   0.0000       5.406828       147.1273 
 867   0.0000       5.411305       147.2491 
 868   0.0000       5.425724       147.6415 
 869   0.0000       5.450294       148.3100 
 870   0.0000       5.460744       148.5944 
 871   0.0000       5.478515       149.0780 
 872   0.0000       5.530656       150.4968 
 873   0.0000       5.543125       150.8361 
 874   0.0000       5.550598       151.0395 
 875   0.0000       5.561881       151.3465 
 876   0.0000       5.566057       151.4601 
 877   0.0000       5.593381       152.2036 
 878   0.0000       5.604854       152.5158 
 879   0.0000       5.611220       152.6891 
 880   0.0000       5.636115       153.3665 
 881   0.0000       5.636757       153.3840 
 882   0.0000       5.686133       154.7276 
 883   0.0000       5.701850       155.1552 
 884   0.0000       5.742134       156.2514 
 885   0.0000       5.754610       156.5909 
 886   0.0000       5.776280       157.1806 
 887   0.0000       5.788209       157.5052 
 888   0.0000       5.793756       157.6561 
 889   0.0000       5.805480       157.9751 
 890   0.0000       5.818127       158.3193 
 891   0.0000       5.838203       158.8656 
 892   0.0000       5.844854       159.0466 
 893   0.0000       5.853742       159.2884 
 894   0.0000       5.859401       159.4424 
 895   0.0000       5.869000       159.7036 
 896   0.0000       5.880458       160.0154 
 897   0.0000       5.886511       160.1801 
 898   0.0000       5.901398       160.5852 
 899   0.0000       5.909122       160.7954 
 900   0.0000       5.937396       161.5648 
 901   0.0000       5.973700       162.5526 
 902   0.0000       6.028451       164.0425 
 903   0.0000       6.059757       164.8944 
 904   0.0000       6.093030       165.7998 
 905   0.0000       6.113764       166.3640 
 906   0.0000       6.123222       166.6213 
 907   0.0000       6.136947       166.9948 
 908   0.0000       6.141569       167.1206 
 909   0.0000       6.162994       167.7036 
 910   0.0000       6.172732       167.9686 
 911   0.0000       6.189102       168.4140 
 912   0.0000       6.194669       168.5655 
 913   0.0000       6.210514       168.9967 
 914   0.0000       6.306137       171.5987 
 915   0.0000       6.450658       175.5313 
 916   0.0000       6.578498       179.0100 
 917   0.0000       6.696778       182.2286 
 918   0.0000       6.758549       183.9095 
 919   0.0000       6.800203       185.0429 
 920   0.0000       6.872322       187.0054 
 921   0.0000       6.963237       189.4793 
 922   0.0000       7.096353       193.1016 
 923   0.0000       7.136917       194.2054 
 924   0.0000       7.168090       195.0536 
 925   0.0000       7.182857       195.4555 
 926   0.0000       7.214220       196.3089 
 927   0.0000       7.297594       198.5776 
 928   0.0000       7.361616       200.3198 
 929   0.0000       7.430568       202.1960 
 930   0.0000       7.445648       202.6064 
 931   0.0000       7.459404       202.9807 
 932   0.0000       7.470730       203.2889 
 933   0.0000       7.476327       203.4412 
 934   0.0000       7.490718       203.8328 
 935   0.0000       7.500730       204.1052 
 936   0.0000       7.505283       204.2291 
 937   0.0000       7.515096       204.4962 
 938   0.0000       7.523037       204.7122 
 939   0.0000       7.524385       204.7489 
 940   0.0000       7.541020       205.2016 
 941   0.0000       7.546548       205.3520 
[...]
      g+2     :     0.007910
      g-2     :     0.006143
      g+3     :     0.007438
      g-3     :     0.007002
      g+4     :     0.006703
      g-4     :     0.003490
 15 O s       :     3.146648  s :     3.146648
      pz      :     1.414370  p :     4.286579
      px      :     1.420206
      py      :     1.452002
      dz2     :     0.051517  d :     0.254915
      dxz     :     0.045671
      dyz     :     0.026492
      dx2y2   :     0.045754
      dxy     :     0.085481
      f0      :     0.000715  f :     0.002616
      f+1     :     0.000400
      f-1     :     0.000623
      f+2     :     0.000082
      f-2     :     0.000116
      f+3     :     0.000293
      f-3     :     0.000386
 16 C s       :     2.720483  s :     2.720483
      pz      :     0.857549  p :     2.687342
      px      :     0.840302
      py      :     0.989491
      dz2     :     0.132810  d :     0.784940
      dxz     :     0.103695
      dyz     :     0.185492
      dx2y2   :     0.176654
      dxy     :     0.186289
      f0      :     0.003692  f :     0.039931
      f+1     :     0.002811
      f-1     :     0.006580
      f+2     :     0.007877
      f-2     :     0.004535
      f+3     :     0.007854
      f-3     :     0.006582
 17 C s       :     2.691074  s :     2.691074
      pz      :     0.894178  p :     2.508074
      px      :     0.643851
      py      :     0.970046
      dz2     :     0.173535  d :     0.980992
      dxz     :     0.119710
      dyz     :     0.225932
      dx2y2   :     0.212134
      dxy     :     0.249681
      f0      :     0.003181  f :     0.046709
      f+1     :     0.003652
      f-1     :     0.007417
      f+2     :     0.010313
      f-2     :     0.004721
      f+3     :     0.009384
      f-3     :     0.008042
 18 H s       :     0.708106  s :     0.708106
      pz      :     0.099012  p :     0.282143
      px      :     0.088965
      py      :     0.094166
      dz2     :     0.007116  d :     0.028406
      dxz     :     0.004519
      dyz     :     0.006047
      dx2y2   :     0.005940
      dxy     :     0.004784
 19 H s       :     0.709903  s :     0.709903
      pz      :     0.127339  p :     0.291530
      px      :     0.079714
      py      :     0.084477
      dz2     :     0.009547  d :     0.029191
      dxz     :     0.007784
      dyz     :     0.009251
      dx2y2   :     0.001463
      dxy     :     0.001146
 20 H s       :     0.716983  s :     0.716983
      pz      :     0.096521  p :     0.346613
      px      :     0.134415
      py      :     0.115676
      dz2     :     0.003283  d :     0.029608
      dxz     :     0.006919
      dyz     :     0.003502
      dx2y2   :     0.008152
      dxy     :     0.007753
 21 H s       :     0.708048  s :     0.708048
      pz      :     0.169581  p :     0.393833
      px      :     0.107384
      py      :     0.116868
      dz2     :     0.008194  d :     0.030390
      dxz     :     0.007598
      dyz     :     0.007223
      dx2y2   :     0.003618
      dxy     :     0.003756
 22 H s       :     0.494372  s :     0.494372
      pz      :     0.110269  p :     0.698605
      px      :     0.267671
      py      :     0.320665
      dz2     :     0.009945  d :     0.087664
      dxz     :     0.010242
      dyz     :     0.012652
      dx2y2   :     0.025714
      dxy     :     0.029111
 23 H s       :     0.576072  s :     0.576072
      pz      :     0.271174  p :     0.558367
      px      :     0.143854
      py      :     0.143339
      dz2     :     0.034194  d :     0.095635
      dxz     :     0.025751
      dyz     :     0.027265
      dx2y2   :     0.004483
      dxy     :     0.003943
 24 H s       :     0.725979  s :     0.725979
      pz      :     0.091083  p :     0.308710
      px      :     0.099518
      py      :     0.118108
      dz2     :     0.003273  d :     0.029170
      dxz     :     0.002217
      dyz     :     0.007538
      dx2y2   :     0.007975
      dxy     :     0.008167
 25 H s       :     0.698370  s :     0.698370
      pz      :     0.126125  p :     0.320745
      px      :     0.101764
      py      :     0.092857
      dz2     :     0.010901  d :     0.030320
      dxz     :     0.004617
      dyz     :     0.009004
      dx2y2   :     0.003356
      dxy     :     0.002442
 26 H s       :     0.734679  s :     0.734679
      pz      :     0.091013  p :     0.314026
      px      :     0.097021
      py      :     0.125992
      dz2     :     0.002805  d :     0.029056
      dxz     :     0.001175
      dyz     :     0.008224
      dx2y2   :     0.007958
      dxy     :     0.008893
 27 H s       :     0.727211  s :     0.727211
      pz      :     0.099375  p :     0.311219
      px      :     0.127275
      py      :     0.084569
      dz2     :     0.005522  d :     0.029204
      dxz     :     0.008289
      dyz     :     0.002585
      dx2y2   :     0.006180
      dxy     :     0.006628
 28 H s       :     0.738144  s :     0.738144
      pz      :     0.117996  p :     0.322102
      px      :     0.112122
      py      :     0.091984
      dz2     :     0.008286  d :     0.028995
      dxz     :     0.007797
      dyz     :     0.004833
      dx2y2   :     0.003886
      dxy     :     0.004193
 29 H s       :     0.737837  s :     0.737837
      pz      :     0.105947  p :     0.322770
      px      :     0.088103
      py      :     0.128720
      dz2     :     0.003988  d :     0.029264
      dxz     :     0.001434
      dyz     :     0.008985
      dx2y2   :     0.007068
      dxy     :     0.007789
 30 H s       :     0.736894  s :     0.736894
      pz      :     0.100821  p :     0.316169
      px      :     0.122908
      py      :     0.092439
      dz2     :     0.004244  d :     0.028814
      dxz     :     0.007949
      dyz     :     0.002225
      dx2y2   :     0.006734
      dxy     :     0.007663
 31 H s       :     0.717389  s :     0.717389
      pz      :     0.082328  p :     0.283021
      px      :     0.126073
      py      :     0.074620
      dz2     :     0.003432  d :     0.028374
      dxz     :     0.008516
      dyz     :     0.000628
      dx2y2   :     0.007217
      dxy     :     0.008581


                      *****************************
                      * MAYER POPULATION ANALYSIS *
                      *****************************

  NA   - Mulliken gross atomic population
  ZA   - Total nuclear charge
  QA   - Mulliken gross atomic charge
  VA   - Mayer's total valence
  BVA  - Mayer's bonded valence
  FA   - Mayer's free valence

  ATOM       NA         ZA         QA         VA         BVA        FA
  0 C      6.3101     6.0000    -0.3101     3.9243     3.9243    -0.0000
  1 C      5.2237     6.0000     0.7763     3.7549     3.7549    -0.0000
  2 O      8.7586     8.0000    -0.7586     1.5399     1.5399    -0.0000
  3 O      8.6706     8.0000    -0.6706     1.4829     1.4829     0.0000
  4 C      5.8130     6.0000     0.1870     3.5713     3.5713    -0.0000
  5 S     16.6402    16.0000    -0.6402     1.7463     1.7463    -0.0000
  6 C      5.7448     6.0000     0.2552     3.4019     3.4019     0.0000
  7 S     16.4827    16.0000    -0.4827     2.0344     2.0344     0.0000
  8 C      5.8305     6.0000     0.1695     3.6024     3.6024     0.0000
  9 S     16.5027    16.0000    -0.5027     1.8581     1.8581     0.0000
 10 C      5.7525     6.0000     0.2475     3.3602     3.3602    -0.0000
 11 S     16.5708    16.0000    -0.5708     1.7968     1.7968    -0.0000
 12 C      5.7784     6.0000     0.2216     3.4089     3.4089     0.0000
 13 S     16.5202    16.0000    -0.5202     1.8955     1.8955    -0.0000
 14 W     13.3535    14.0000     0.6465     6.8908     6.8908     0.0000
 15 O      8.5889     8.0000    -0.5889     1.6853     1.6853     0.0000
 16 C      6.0574     6.0000    -0.0574     3.5905     3.5905     0.0000
 17 C      5.3286     6.0000     0.6714     3.3016     3.3016     0.0000
 18 H      1.0093     1.0000    -0.0093     1.0957     1.0957    -0.0000
 19 H      0.9158     1.0000     0.0842     1.0408     1.0408     0.0000
 20 H      0.9680     1.0000     0.0320     1.0842     1.0842    -0.0000
 21 H      1.0257     1.0000    -0.0257     1.1780     1.1780    -0.0000
 22 H      0.5648     1.0000     0.4352     0.7956     0.7956    -0.0000
 23 H      0.7525     1.0000     0.2475     1.0000     1.0000    -0.0000
 24 H      1.2092     1.0000    -0.2092     1.0285     1.0285     0.0000
 25 H      1.1928     1.0000    -0.1928     1.0947     1.0947     0.0000
 26 H      1.1189     1.0000    -0.1189     0.9710     0.9710    -0.0000
 27 H      1.1246     1.0000    -0.1246     0.9727     0.9727     0.0000
 28 H      0.9648     1.0000     0.0352     0.9854     0.9854    -0.0000
 29 H      1.1183     1.0000    -0.1183     0.9656     0.9656     0.0000
 30 H      1.1368     1.0000    -0.1368     0.9833     0.9833     0.0000
 31 H      0.9711     1.0000     0.0289     1.0933     1.0933     0.0000

  Mayer bond orders larger than 0.100000
B(  0-C ,  1-C ) :   0.8889 B(  0-C , 18-H ) :   1.0367 B(  0-C , 19-H ) :   1.0141 
B(  0-C , 31-H ) :   1.0540 B(  1-C ,  2-O ) :   1.5181 B(  1-C ,  3-O ) :   1.3781 
B(  3-O , 22-H ) :   0.1658 B(  4-C ,  5-S ) :   0.7464 B(  4-C ,  9-S ) :  -0.1383 
B(  4-C , 20-H ) :   1.0248 B(  4-C , 21-H ) :   0.9521 B(  4-C , 28-H ) :   0.9999 
B(  5-S , 14-W ) :   0.8481 B(  6-C ,  7-S ) :   0.9229 B(  6-C ,  8-C ) :   1.5054 
B(  6-C , 29-H ) :   1.1453 B(  6-C , 30-H ) :  -0.1775 B(  7-S , 14-W ) :   1.0671 
B(  8-C ,  9-S ) :   1.0220 B(  8-C , 29-H ) :  -0.1484 B(  8-C , 30-H ) :   1.1731 
B(  9-S , 14-W ) :   0.8075 B( 10-C , 11-S ) :   1.0488 B( 10-C , 12-C ) :   1.4063 
B( 10-C , 26-H ) :   1.1726 B( 10-C , 27-H ) :  -0.2210 B( 11-S , 14-W ) :   0.7832 
B( 12-C , 13-S ) :   1.0184 B( 12-C , 26-H ) :  -0.1813 B( 12-C , 27-H ) :   1.2060 
B( 13-S , 14-W ) :   0.9287 B( 14-W , 16-C ) :   1.3575 B( 14-W , 17-C ) :   0.8279 
B( 15-O , 17-C ) :   0.1015 B( 15-O , 22-H ) :   0.6139 B( 15-O , 23-H ) :   0.9162 
B( 16-C , 17-C ) :   1.3656 B( 16-C , 24-H ) :   0.9795 B( 17-C , 25-H ) :   1.0716 


-------
TIMINGS
-------

Total SCF time: 0 days 0 hours 2 min 24 sec 

Total time                  ....     144.179 sec
Sum of individual times     ....     142.786 sec  ( 99.0%)

Fock matrix formation       ....     132.686 sec  ( 92.0%)
  XC integration            ....       9.031 sec  (  6.8% of F)
    Basis function eval.    ....       1.624 sec  ( 18.0% of XC)
    Density eval.           ....       3.300 sec  ( 36.5% of XC)
    XC-Functional eval.     ....       0.085 sec  (  0.9% of XC)
    XC-Potential eval.      ....       3.119 sec  ( 34.5% of XC)
Diagonalization             ....       3.149 sec  (  2.2%)
Density matrix formation    ....       0.159 sec  (  0.1%)
Population analysis         ....       0.213 sec  (  0.1%)
Initial guess               ....       2.416 sec  (  1.7%)
Orbital Transformation      ....       0.000 sec  (  0.0%)
Orbital Orthonormalization  ....       0.000 sec  (  0.0%)
DIIS solution               ....       2.828 sec  (  2.0%)
Grid generation             ....       1.335 sec  (  0.9%)


           ************************************************************
           *        Program running with 24 parallel MPI-processes    *
           *              working on a common directory               *
           ************************************************************

------------------------------------------------------------------------------
                                ORCA  MP2 
------------------------------------------------------------------------------

Freezing NCore=74 chemical core electrons

-------------
RI-MP2 ENERGY
-------------
Dimension of the basis                    ... 1005
Memory devoted to MP2                     ... 5000 MB   
Data format for buffers                   ... DOUBLE
Compression type for matrix containers    ... UNCOMPRESSED
Scaling for aa/bb pairs                   ...   4.000e-01
Scaling for ab pairs                      ...   4.700e-01
Overall scaling of the MP2 energy         ...   1.000e+00
Calculating two index integrals           ... done (    0.048 sec)
Cholesky decomposition of V**-1           ... done (    0.641 sec)

-----------------
RI-TRANSFORMATION (AUX index driven)
-----------------

Dimension of the orbital-basis         ... 1005
Dimension of the aux-basis             ... 2538
Transformation of internal/external MOs...   37-  93 to   94-1004
Number Format for Storage              ... Double (8 Byte)
Integral mode                          ... Direct

First Phase: integral generation and transformation of MO indices
  Aux angular momentum 0               ... done (    0.294 sec)
  Aux angular momentum 1               ... done (    0.593 sec)
  Aux angular momentum 2               ... done (    0.821 sec)
  Aux angular momentum 3               ... done (    0.802 sec)
  Aux angular momentum 4               ... done (    0.345 sec)
  Aux angular momentum 5               ... done (    0.229 sec)
  Aux angular momentum 6               ... done (    0.298 sec)
Closing buffer VIA ( 0.98 GB; CompressionRatio= 1.00)
  Phase 1 completed in     3.524 sec
Second Phase: sorting and transformation of aux index

IA-Transformation
Memory available                       ... 4872 MB 
Max. # MO pairs treated in a batch     ... 3    
# of internal orbitals                 ... 57
# batches for internal orbitals        ... 1
Closing buffer IAV ( 0.05 GB; CompressionRatio= 1.00)
(ia|v) transformation done in     0.899 sec

  Phase 2 completed in     1.924 sec
RI-Integral transformation completed in     5.459 sec
Opening buffers                              ... done

Starting loop over batches of integrals:

Operator 0  - window                       ... ( 37- 93)x( 94-1004)
Operator 0  - Memory available             ...  5000 MB
Operator 0  - Memory needed per MO         ...  17.6 MB
Operator 0  - Number of orbitals per batch ... 3
Operator 0  - Number of batches            ... 1

OPERATOR  0   PASS   0:  MOs    37 ...   39 +   40 ...   42 +   43 ...   45 +   46 ...   48
                            +   49 ...   51 +   52 ...   54 +   55 ...   57 +   58 ...   60
                            +   61 ...   63 +   64 ...   66 +   67 ...   69 +   70 ...   72
                            +   73 ...   75 +   76 ...   78 +   79 ...   81 +   82 ...   84
                            +   85 ...   87 +   88 ...   90 +   91 ...   93
  Reading integrals       ... ok
  Internal MO  39
Time spent in pair loops =     0.585 sec
Deleting buffer (Ka|jb)[aa] ...done

-----------------------------------------------
 RI-MP2 CORRELATION ENERGY:     -1.925421748 Eh
-----------------------------------------------


-------
TIMINGS
-------

Total time                :   19.829 sec
Integral trafo            :    5.470 sec ( 27.6%)
I/O of integrals          :    0.045 sec (  0.2%)
K(i,j) Operators          :    0.415 sec (  2.1%)
T(i,j) pair energies      :    0.062 sec (  0.3%)
V-calculation             :    0.048 sec (  0.2%)
V**(-1/2)                 :    0.641 sec (  3.2%)
Gamma(ia|P)               :    0.000 sec (  0.0%)
Gamma-Trafo               :    0.000 sec (  0.0%)
D(virtual)                :    0.000 sec (  0.0%)
D(internal)               :    0.000 sec (  0.0%)
W(virtual)                :    0.000 sec (  0.0%)
W(internal)               :    0.000 sec (  0.0%)
L(virtual)                :    0.000 sec (  0.0%)
L(internal)               :    0.000 sec (  0.0%)
G(D)                      :    0.000 sec (  0.0%)
G(Z)                      :    0.000 sec (  0.0%)
Z-Vector Solution         :    0.000 sec (  0.0%)
Z-Vector Solution         :    0.000 sec (  0.0%)
3-Index Derivative 
+ Separable RIJ part      :    0.000 sec (  0.0%)
2-Index Derivative 
+ Separable RIJ part      :    0.000 sec (  0.0%)
Separable Gradient (X)    :    0.000 sec (  0.0%)


---------------------------------------
MP2 TOTAL ENERGY:    -2633.645332966 Eh
---------------------------------------


-------------------------------------------------------------------------------
                          DFT DISPERSION CORRECTION                            
                                                                               
                              DFTD3 V3.1  Rev 1                                
                          USING Becke-Johnson damping                          
-------------------------------------------------------------------------------
The DSD-BLYP/2013 functional is recognized
Active option DFTDOPT                   ...         4   

molecular C6(AA) [au] = 23659.794733 


            DFT-D V3
 parameters
 s6 scaling factor         :     0.5700 
 a1 scaling factor         :     0.0000 
 s8 scaling factor         :     0.0000 
 a2 scaling factor         :     5.4000 
 ad hoc parameters k1-k3   :    16.0000     1.3333    -4.0000 

 Edisp/kcal,au: -41.631255984267  -0.066343622310 
 E6   /kcal   : -41.631255984 
 E8   /kcal   :  -0.000000000 
 % E8         :   0.000000000 

-------------------------   ----------------
Dispersion correction           -0.066343622
-------------------------   ----------------


-------------------------   --------------------
FINAL SINGLE POINT ENERGY     -2633.711676588591
-------------------------   --------------------


                            ***************************************
                            *     ORCA property calculations      *
                            ***************************************


  WARNING: The energy has been calculated at the MP2 level but the densities
           used in the property calculations are still SCF densities
           MP2 response densities have not been calculated 
           use %mp2 Density relaxed end
           or  %mp2 Density unrelaxed end

                                    ---------------------
                                    Active property flags
                                    ---------------------
   (+) Dipole Moment


------------------------------------------------------------------------------
                       ORCA ELECTRIC PROPERTIES CALCULATION
------------------------------------------------------------------------------

Dipole Moment Calculation                       ... on
Quadrupole Moment Calculation                   ... off
Polarizability Calculation                      ... off
GBWName                                         ... TMB06_T1.gbw
Electron density file                           ... TMB06_T1.scfp
The origin for moment calculation is the CENTER OF MASS  = ( 0.128534,  0.036235 -0.008375)

-------------
DIPOLE MOMENT
-------------
                                X             Y             Z
Electronic contribution:     97.75969       9.18548      10.97030
Nuclear contribution   :    -95.08812     -10.49452     -10.64317
                        -----------------------------------------
Total Dipole Moment    :      2.67156      -1.30904       0.32713
                        -----------------------------------------
Magnitude (a.u.)       :      2.99296
Magnitude (Debye)      :      7.60751



--------------------
Rotational spectrum 
--------------------
 
Rotational constants in cm-1:     0.011727     0.005648     0.005281 
Rotational constants in MHz :   351.552196   169.313101   158.324155 

 Dipole components along the rotational axes: 
x,y,z [a.u.] :     2.673622    -1.288108     0.387761 
x,y,z [Debye]:     6.795807    -3.274110     0.985609 

 

Timings for individual modules:

Sum of individual times         ...      170.603 sec (=   2.843 min)
GTO integral calculation        ...        5.392 sec (=   0.090 min)   3.2 %
SCF iterations                  ...      144.616 sec (=   2.410 min)  84.8 %
MP2 module                      ...       20.594 sec (=   0.343 min)  12.1 %
                             ****ORCA TERMINATED NORMALLY****
TOTAL RUN TIME: 0 days 0 hours 2 minutes 51 seconds 283 msec
