
                                 *****************
                                 * O   R   C   A *
                                 *****************

           --- An Ab Initio, DFT and Semiempirical electronic structure package ---

                  #######################################################
                  #                        -***-                        #
                  #          Department of theory and spectroscopy      #
                  #               Directorship: Frank Neese             #
                  #        Max Planck Institute fuer Kohlenforschung    #
                  #                Kaiser Wilhelm Platz 1               #
                  #                 D-45470 Muelheim/Ruhr               #
                  #                      Germany                        #
                  #                                                     #
                  #                  All rights reserved                #
                  #                        -***-                        #
                  #######################################################


                         Program Version 4.2.0 -  RELEASE  -


 With contributions from (in alphabetic order):
   Daniel Aravena         : Magnetic Suceptibility
   Michael Atanasov       : Ab Initio Ligand Field Theory (pilot matlab implementation)
   Alexander A. Auer      : GIAO ZORA, VPT2
   Ute Becker             : Parallelization
   Giovanni Bistoni       : ED, misc. LED, open-shell LED, HFLED
   Martin Brehm           : Molecular dynamics
   Dmytro Bykov           : SCF Hessian
   Vijay G. Chilkuri      : MRCI spin determinant printing, contributions to CSF-ICE
   Dipayan Datta          : RHF DLPNO-CCSD density
   Achintya Kumar Dutta   : EOM-CC, STEOM-CC
   Dmitry Ganyushin       : Spin-Orbit,Spin-Spin,Magnetic field MRCI
   Miquel Garcia          : C-PCM Hessian, Gaussian charge scheme
   Yang Guo               : DLPNO-NEVPT2, CIM, IAO-localization
   Andreas Hansen         : Spin unrestricted coupled pair/coupled cluster methods
   Benjamin Helmich-Paris : CASSCF linear response (MC-RPA)
   Lee Huntington         : MR-EOM, pCC
   Robert Izsak           : Overlap fitted RIJCOSX, COSX-SCS-MP3, EOM
   Christian Kollmar      : KDIIS, OOCD, Brueckner-CCSD(T), CCSD density
   Simone Kossmann        : Meta GGA functionals, TD-DFT gradient, OOMP2, MP2 Hessian
   Martin Krupicka        : AUTO-CI
   Lucas Lang             : DCDCAS
   Dagmar Lenk            : GEPOL surface, SMD
   Dimitrios Liakos       : Extrapolation schemes; Compound Job, initial MDCI parallelization
   Dimitrios Manganas     : Further ROCIS development; embedding schemes
   Dimitrios Pantazis     : SARC Basis sets
   Taras Petrenko         : DFT Hessian,TD-DFT gradient, ASA, ECA, R-Raman, ABS, FL, XAS/XES, NRVS
   Peter Pinski           : DLPNO-MP2, DLPNO-MP2 Gradient
   Christoph Reimann      : Effective Core Potentials
   Marius Retegan         : Local ZFS, SOC
   Christoph Riplinger    : Optimizer, TS searches, QM/MM, DLPNO-CCSD(T), (RO)-DLPNO pert. Triples
   Tobias Risthaus        : Range-separated hybrids, TD-DFT gradient, RPA, STAB
   Michael Roemelt        : Original ROCIS implementation
   Masaaki Saitow         : Open-shell DLPNO-CCSD energy and density
   Barbara Sandhoefer     : DKH picture change effects
   Avijit Sen             : IP-ROCIS
   Kantharuban Sivalingam : CASSCF convergence, NEVPT2, FIC-MRCI
   Bernardo de Souza      : ESD, SOC TD-DFT
   Georgi Stoychev        : AutoAux, RI-MP2 NMR
   Willem Van den Heuvel  : Paramagnetic NMR
   Boris Wezisla          : Elementary symmetry handling
   Frank Wennmohs         : Technical directorship


 We gratefully acknowledge several colleagues who have allowed us to
 interface, adapt or use parts of their codes:
   Stefan Grimme, W. Hujo, H. Kruse,             : VdW corrections, initial TS optimization,
                  C. Bannwarth                     DFT functionals, gCP, sTDA/sTD-DF
   Ed Valeev, F. Pavosevic, A. Kumar             : LibInt (2-el integral package), F12 methods
   Garnet Chan, S. Sharma, J. Yang, R. Olivares  : DMRG
   Ulf Ekstrom                                   : XCFun DFT Library
   Mihaly Kallay                                 : mrcc  (arbitrary order and MRCC methods)
   Andreas Klamt, Michael Diedenhofen            : otool_cosmo (COSMO solvation model)
   Jiri Pittner, Ondrej Demel                    : Mk-CCSD
   Frank Weinhold                                : gennbo (NPA and NBO analysis)
   Christopher J. Cramer and Donald G. Truhlar   : smd solvation model
   Lars Goerigk                                  : TD-DFT with DH, B97 family of functionals
   V. Asgeirsson, H. Jonsson                     : NEB implementation
   FAccTs GmbH                                   : IRC, NEB, NEB-TS, Multilevel, MM, QM/MM, CI optimization
   S Lehtola, MJT Oliveira, MAL Marques          : LibXC Library


 Your calculation uses the libint2 library for the computation of 2-el integrals
 For citations please refer to: http://libint.valeyev.net

 Your ORCA version has been built with support for libXC version: 4.2.3
 For citations please refer to: https://tddft.org/programs/libxc/

 This ORCA versions uses:
   CBLAS   interface :  Fast vector & matrix operations
   LAPACKE interface :  Fast linear algebra routines
   SCALAPACK package :  Parallel linear algebra routines


Your calculation utilizes the atom-pairwise dispersion correction
with the Becke-Johnson damping scheme (D3BJ)
Cite in your paper:
S.Grimme, S.Ehrlich, L.Goerigk, J Comput Chem, (2011), 32, 1456–1465 
S.Grimme, J.Antony, S.Ehrlich and H.Krieg, J.Chem.Phys., 132, (2010), 154104 
   

----- Orbital basis set information -----
Your calculation utilizes the basis: def2-TZVPPD
   F. Weigend and R. Ahlrichs, Phys. Chem. Chem. Phys. 7, 3297 (2005).
   D. Rappoport and F. Furche, J. Chem. Phys. 133 134105 (2010).

----- AuxC basis set information -----
Your calculation utilizes the auxiliary basis: def2-TZVPPD/C
   A. Hellweg, C. Hattig, S. Hofener and W. Klopper, Theor. Chem. Acc. 117, 587 (2007).

----- AuxJK basis set information -----
Your calculation utilizes the auxiliary basis: def2/JK
   H-Ba, Hf-Rn: F. Weigend, J. Comput. Chem. 29, 167 (2008).

cite the ECPs for Re [Def2-ECP] as follows:
Ce-Yb(ecp-28): M. Dolg, H. Stoll, H.Preuss, J. Chem. Phys., 1989, 90, 1730-1734.
Y-Cd(ecp-28), Hf-Hg(ecp-46): D. Andrae,U. Haeussermann, M. Dolg, H. Stoll, H. Preuss, Theor. Chim. Acta, 1990, 77, 123-141.
In-Sb(ecp-28), Tl-Bi(ecp-46): B. Metz, H. Stoll, M. Dolg, J. Chem. Phys., 2000, 113, 2563-2569.
Te-Xe(ecp-28), Po-Rn(ecp-46): K. A. Peterson, D. Figgen, E. Goll, H. Stoll, M. Dolg, J. Chem. Phys., 2003, 119, 11113-11123.
Rb(ecp-28), Cs(ecp-46): T. Leininger, A. Nicklass, W. Kuechle, H. Stoll, M. Dolg, A. Bergner, Chem. Phys. Lett., 1996, 255, 274-280.
Sr(ecp-28), Ba(ecp-46): M. Kaupp, P. V. Schleyer, H. Stoll and H. Preuss, J. Chem. Phys., 1991, 94, 1360-1366.
La(ecp-46): M. Dolg, H. Stoll, A. Savin, H. Preuss, Theor. Chim. Acta, 1989, 75, 173-194.
Lu(ecp-28): X. Cao, M. Dolg, J. Chem. Phys., 2001, 115, 7348-7355.

ECP parameters for Re [Def2-ECP] have been obtained from:
TURBOMOLE (7.0.2)

================================================================================
                                        WARNINGS
                       Please study these warnings very carefully!
================================================================================


WARNING: No MP2 level density has been requested!
         To caclulate MP2 level properties use
         %mp2 Density relaxed end
         or
         %mp2 Density unrelaxed end
         Otherwise for double-hybrid DFT only the energy is correct!

WARNING: There are different parametrizations of Gershom Martin's DSD-DFs
         for use with and without D3(BJ)!
         You are using the D3(BJ) parametrized version,
         consistent with the 2013 article (S. Kozuch and J. M. L. Martin, JCC 2013, 34, 2327)

WARNING: The frozen-core approximation is turned on by default for 
         the MP2 part of double-hybrid DFT.

INFO   : the flag for use of LIBINT has been found!

================================================================================
                                       INPUT FILE
================================================================================
NAME = TMB20_C1.in
|  1> #
|  2> # TMB20_C1 ri-DSD-BLYP/2013-D3BJ/Def2-TZVPPD
|  3> #
|  4> ! rijk ri-dsd-blyp/2013 d3bj def2-tzvppd def2/jk def2-tzvppd/c grid4 nofinalgrid
|  5> 
|  6> *xyz 0 1
|  7> Re      -1.072665    0.212376   -0.034636 
|  8> C       -1.072260   -0.271683    1.857255 
|  9> C       -2.882577   -0.347239   -0.151918 
| 10> C       -1.671800    1.974535    0.387813 
| 11> Br      -0.106106   -2.222959   -0.227559 
| 12> O       -2.042355    3.032773    0.649150 
| 13> O       -1.092539   -0.543239    2.965184 
| 14> O       -3.977345   -0.680746   -0.233754 
| 15> C       -1.097144    1.301488   -2.052782 
| 16> C       -0.757943    0.130940   -2.251371 
| 17> C        3.116548    1.792974   -0.035452 
| 18> C        3.822495    0.593532    0.034050 
| 19> O        3.256440   -0.568022    0.077602 
| 20> O        5.128051    0.619793    0.055969 
| 21> C        1.730040    1.757413   -0.054388 
| 22> O        1.074850    0.675289   -0.001074 
| 23> H        2.259004   -0.423965    0.051981 
| 24> C        5.826586   -0.629933    0.127198 
| 25> H        6.879482   -0.365214    0.136783 
| 26> H        5.557636   -1.164457    1.037079 
| 27> H        5.594141   -1.245208   -0.740821 
| 28> H       -0.446457   -0.764543   -2.749196 
| 29> H        3.656243    2.725032   -0.072675 
| 30> H       -1.374127    2.315189   -2.254725 
| 31> H        1.177176    2.699572   -0.113184 
| 32> *
| 33> 
| 34> %maxcore 5000
| 35> 
| 36> %pal
| 37> nprocs = 24
| 38> end
| 39> 
| 40> 
| 41>                          ****END OF INPUT****
================================================================================

                       ****************************
                       * Single Point Calculation *
                       ****************************

---------------------------------
CARTESIAN COORDINATES (ANGSTROEM)
---------------------------------
  Re    -1.072665    0.212376   -0.034636
  C     -1.072260   -0.271683    1.857255
  C     -2.882577   -0.347239   -0.151918
  C     -1.671800    1.974535    0.387813
  Br    -0.106106   -2.222959   -0.227559
  O     -2.042355    3.032773    0.649150
  O     -1.092539   -0.543239    2.965184
  O     -3.977345   -0.680746   -0.233754
  C     -1.097144    1.301488   -2.052782
  C     -0.757943    0.130940   -2.251371
  C      3.116548    1.792974   -0.035452
  C      3.822495    0.593532    0.034050
  O      3.256440   -0.568022    0.077602
  O      5.128051    0.619793    0.055969
  C      1.730040    1.757413   -0.054388
  O      1.074850    0.675289   -0.001074
  H      2.259004   -0.423965    0.051981
  C      5.826586   -0.629933    0.127198
  H      6.879482   -0.365214    0.136783
  H      5.557636   -1.164457    1.037079
  H      5.594141   -1.245208   -0.740821
  H     -0.446457   -0.764543   -2.749196
  H      3.656243    2.725032   -0.072675
  H     -1.374127    2.315189   -2.254725
  H      1.177176    2.699572   -0.113184

----------------------------
CARTESIAN COORDINATES (A.U.)
----------------------------
  NO LB      ZA    FRAG     MASS         X           Y           Z
   0 Re   15.0000*   0   186.207   -2.027043    0.401332   -0.065453
   1 C     6.0000    0    12.011   -2.026278   -0.513406    3.509703
   2 C     6.0000    0    12.011   -5.447281   -0.656187   -0.287083
   3 C     6.0000    0    12.011   -3.159244    3.731330    0.732860
   4 Br   35.0000    0    79.900   -0.200511   -4.200784   -0.430024
   5 O     8.0000    0    15.999   -3.859492    5.731110    1.226716
   6 O     8.0000    0    15.999   -2.064600   -1.026573    5.603386
   7 O     8.0000    0    15.999   -7.516093   -1.286424   -0.441731
   8 C     6.0000    0    12.011   -2.073302    2.459456   -3.879196
   9 C     6.0000    0    12.011   -1.432305    0.247441   -4.254475
  10 C     6.0000    0    12.011    5.889422    3.388230   -0.066995
  11 C     6.0000    0    12.011    7.223469    1.121613    0.064345
  12 O     8.0000    0    15.999    6.153780   -1.073406    0.146647
  13 O     8.0000    0    15.999    9.690612    1.171239    0.105766
  14 C     6.0000    0    12.011    3.269302    3.321029   -0.102778
  15 O     8.0000    0    15.999    2.031172    1.276111   -0.002030
  16 H     1.0000    0     1.008    4.268899   -0.801178    0.098230
  17 C     6.0000    0    12.011   11.010652   -1.190401    0.240369
  18 H     1.0000    0     1.008   13.000337   -0.690154    0.258482
  19 H     1.0000    0     1.008   10.502410   -2.200505    1.959795
  20 H     1.0000    0     1.008   10.571394   -2.353102   -1.399949
  21 H     1.0000    0     1.008   -0.843681   -1.444777   -5.195228
  22 H     1.0000    0     1.008    6.909298    5.149564   -0.137336
  23 H     1.0000    0     1.008   -2.596724    4.375073   -4.260813
  24 H     1.0000    0     1.008    2.224540    5.101452   -0.213887
* core charge reduced due to ECP

--------------------------------
INTERNAL COORDINATES (ANGSTROEM)
--------------------------------
 Re     0   0   0     0.000000000000     0.00000000     0.00000000
 C      1   0   0     1.952835076341     0.00000000     0.00000000
 C      1   2   0     1.898079414433    89.25385645     0.00000000
 C      1   2   3     1.908567590395    90.83021686    89.21868551
 Br     1   2   3     2.627225180040    80.86819387   265.64057500
 O      4   1   2     1.151293055759   179.39382481   307.85842972
 O      2   1   3     1.140903399950   178.81765866   313.11216394
 O      3   1   2     1.147362638301   179.40290805   170.20873337
 C      1   2   3     2.293398667328   165.98529094   105.03756460
 C      9   1   3     1.234778332182    71.84477628   270.24034489
 C      1   2   3     4.477476550785    95.01894288   177.44011374
 C     11   1   2     1.393503787644    99.79504400    73.63016355
 O     12  11   1     1.292873827813   123.58606329     0.08481975
 O     12  11   1     1.306004039740   119.33757094   180.00091655
 C     11   1   2     1.387093216363    19.21815263   254.12624644
 O     15  11   1     1.266139277517   122.58761344     1.08924936
 H     13  12  11     1.008110821778   107.69507391     0.00000000
 C     14  12  11     1.433471238547   118.06282715   180.02397767
 H     18  14  12     1.085706225460   105.09659074   180.18420390
 H     18  14  12     1.089005713133   110.43157156   299.48102806
 H     18  14  12     1.089059680647   110.42184320    60.89482170
 H     10   9   1     1.070860897647   161.33402129   181.00629092
 H     11   1   2     1.077677298693   140.70271851   253.41969679
 H      9   1   3     1.070088909829   128.22090502    88.10759206
 H     15  11   1     1.093974018610   118.93475415   180.81163060

---------------------------
INTERNAL COORDINATES (A.U.)
---------------------------
 Re     0   0   0     0.000000000000     0.00000000     0.00000000
 C      1   0   0     3.690323478999     0.00000000     0.00000000
 C      1   2   0     3.586850273711    89.25385645     0.00000000
 C      1   2   3     3.606670053925    90.83021686    89.21868551
 Br     1   2   3     4.964736082417    80.86819387   265.64057500
 O      4   1   2     2.175628575269   179.39382481   307.85842972
 O      2   1   3     2.155994971166   178.81765866   313.11216394
 O      3   1   2     2.168201162682   179.40290805   170.20873337
 C      1   2   3     4.333895397150   165.98529094   105.03756460
 C      9   1   3     2.333392883924    71.84477628   270.24034489
 C      1   2   3     8.461204452038    95.01894288   177.44011374
 C     11   1   2     2.633340525228    99.79504400    73.63016355
 O     12  11   1     2.443177460282   123.58606329     0.08481975
 O     12  11   1     2.467989964904   119.33757094   180.00091655
 C     11   1   2     2.621226301147    19.21815263   254.12624644
 O     15  11   1     2.392656481909   122.58761344     1.08924936
 H     13  12  11     1.905053365803   107.69507391     0.00000000
 C     14  12  11     2.708868061707   118.06282715   180.02397767
 H     18  14  12     2.051687428012   105.09659074   180.18420390
 H     18  14  12     2.057922556098   110.43157156   299.48102806
 H     18  14  12     2.058024539919   110.42184320    60.89482170
 H     10   9   1     2.023633824078   161.33402129   181.00629092
 H     11   1   2     2.036514955274   140.70271851   253.41969679
 H      9   1   3     2.022174978523   128.22090502    88.10759206
 H     15  11   1     2.067311292798   118.93475415   180.81163060

---------------------
BASIS SET INFORMATION
---------------------
There are 5 groups of distinct atoms

 Group   1 Type Re  : 8s8p6d2f1g contracted to 6s5p3d2f1g pattern {311111/41111/411/11/1}
 Group   2 Type C   : 12s6p3d1f contracted to 6s3p3d1f pattern {621111/411/111/1}
 Group   3 Type Br  : 18s14p9d1f contracted to 7s6p5d1f pattern {8421111/641111/51111/1}
 Group   4 Type O   : 12s7p3d1f contracted to 6s4p3d1f pattern {621111/4111/111/1}
 Group   5 Type H   : 5s3p1d contracted to 3s3p1d pattern {311/111/1}

Atom   0Re   basis set group =>   1
Atom   1C    basis set group =>   2
Atom   2C    basis set group =>   2
Atom   3C    basis set group =>   2
Atom   4Br   basis set group =>   3
Atom   5O    basis set group =>   4
Atom   6O    basis set group =>   4
Atom   7O    basis set group =>   4
Atom   8C    basis set group =>   2
Atom   9C    basis set group =>   2
Atom  10C    basis set group =>   2
Atom  11C    basis set group =>   2
Atom  12O    basis set group =>   4
Atom  13O    basis set group =>   4
Atom  14C    basis set group =>   2
Atom  15O    basis set group =>   4
Atom  16H    basis set group =>   5
Atom  17C    basis set group =>   2
Atom  18H    basis set group =>   5
Atom  19H    basis set group =>   5
Atom  20H    basis set group =>   5
Atom  21H    basis set group =>   5
Atom  22H    basis set group =>   5
Atom  23H    basis set group =>   5
Atom  24H    basis set group =>   5
---------------------------------
AUXILIARY/C BASIS SET INFORMATION
---------------------------------
There are 5 groups of distinct atoms

 Group   1 Type Re  : 9s9p8d5f4g3h1i contracted to 9s9p8d5f4g3h1i pattern {111111111/111111111/11111111/11111/1111/111/1}
 Group   2 Type C   : 9s7p6d4f1g contracted to 9s7p5d4f1g pattern {111111111/1111111/21111/1111/1}
 Group   3 Type Br  : 11s10p9d7f4g1h contracted to 11s10p9d6f4g1h pattern {11111111111/1111111111/111111111/211111/1111/1}
 Group   4 Type O   : 9s7p6d4f1g contracted to 9s7p5d4f1g pattern {111111111/1111111/21111/1111/1}
 Group   5 Type H   : 5s4p3d1f contracted to 5s4p3d1f pattern {11111/1111/111/1}

Atom   0Re   basis set group =>   1
Atom   1C    basis set group =>   2
Atom   2C    basis set group =>   2
Atom   3C    basis set group =>   2
Atom   4Br   basis set group =>   3
Atom   5O    basis set group =>   4
Atom   6O    basis set group =>   4
Atom   7O    basis set group =>   4
Atom   8C    basis set group =>   2
Atom   9C    basis set group =>   2
Atom  10C    basis set group =>   2
Atom  11C    basis set group =>   2
Atom  12O    basis set group =>   4
Atom  13O    basis set group =>   4
Atom  14C    basis set group =>   2
Atom  15O    basis set group =>   4
Atom  16H    basis set group =>   5
Atom  17C    basis set group =>   2
Atom  18H    basis set group =>   5
Atom  19H    basis set group =>   5
Atom  20H    basis set group =>   5
Atom  21H    basis set group =>   5
Atom  22H    basis set group =>   5
Atom  23H    basis set group =>   5
Atom  24H    basis set group =>   5
----------------------------------
AUXILIARY/JK BASIS SET INFORMATION
----------------------------------
There are 5 groups of distinct atoms

 Group   1 Type Re  : 13s12p11d9f5g3h2i contracted to 11s9p9d7f4g3h2i pattern {31111111111/411111111/311111111/3111111/2111/111/11}
 Group   2 Type C   : 14s10p6d2f1g contracted to 10s8p5d1f1g pattern {5111111111/31111111/21111/2/1}
 Group   3 Type Br  : 20s14p13d10f7g3h contracted to 17s13p12d9f6g3h pattern {41111111111111111/2111111111111/211111111111/211111111/211111/111}
 Group   4 Type O   : 14s10p6d2f1g contracted to 10s8p4d2f1g pattern {5111111111/31111111/3111/11/1}
 Group   5 Type H   : 4s2p2d contracted to 2s2p2d pattern {31/11/11}

Atom   0Re   basis set group =>   1
Atom   1C    basis set group =>   2
Atom   2C    basis set group =>   2
Atom   3C    basis set group =>   2
Atom   4Br   basis set group =>   3
Atom   5O    basis set group =>   4
Atom   6O    basis set group =>   4
Atom   7O    basis set group =>   4
Atom   8C    basis set group =>   2
Atom   9C    basis set group =>   2
Atom  10C    basis set group =>   2
Atom  11C    basis set group =>   2
Atom  12O    basis set group =>   4
Atom  13O    basis set group =>   4
Atom  14C    basis set group =>   2
Atom  15O    basis set group =>   4
Atom  16H    basis set group =>   5
Atom  17C    basis set group =>   2
Atom  18H    basis set group =>   5
Atom  19H    basis set group =>   5
Atom  20H    basis set group =>   5
Atom  21H    basis set group =>   5
Atom  22H    basis set group =>   5
Atom  23H    basis set group =>   5
Atom  24H    basis set group =>   5
-------------------------
ECP PARAMETER INFORMATION
-------------------------

 Group 1, Type Re ECP Def2-ECP (replacing 60 core electrons, lmax=3)

Atom   0Re   ECP group =>   1



           ************************************************************
           *        Program running with 24 parallel MPI-processes    *
           *              working on a common directory               *
           ************************************************************
------------------------------------------------------------------------------
                           ORCA GTO INTEGRAL CALCULATION
                           -- RI-GTO INTEGRALS CHOSEN --
------------------------------------------------------------------------------

                         BASIS SET STATISTICS AND STARTUP INFO

Gaussian basis set:
 # of primitive gaussian shells          ...  475
 # of primitive gaussian functions       ... 1147
 # of contracted shells                  ...  293
 # of contracted basis functions         ...  825
 Highest angular momentum                ...    4
 Maximum contraction depth               ...    8
Auxiliary gaussian basis set:
 # of primitive gaussian shells          ...  681
 # of primitive gaussian functions       ... 2179
 # of contracted shells                  ...  528
 # of contracted aux-basis functions     ... 1774
 Highest angular momentum                ...    6
 Maximum contraction depth               ...    5
Ratio of auxiliary to basis functions    ...  2.15
Integral package used                  ... LIBINT
 One Electron integrals                  
   ECP integrals                         ... done
 Ordering auxiliary basis shells         ... done
 Integral threshhold             Thresh  ...  1.000e-10
 Primitive cut-off               TCut    ...  1.000e-11
 Pre-screening matrix                    ... done
 Shell pair data                         ... 
 Ordering of the shell pairs             ... done (   0.006 sec) 34306 of 43071 pairs
 Determination of significant pairs      ... done (   0.000 sec)
 Creation of shell pair data             ... done (   0.003 sec)
 Storage of shell pair data              ... done (   0.014 sec)
 Shell pair data done in (   0.023 sec)
 Computing two index integrals           ... done
 Cholesky decomposition of the V-matrix  ... done


Timings:
 Total evaluation time                   ...   3.508 sec (  0.058 min)
 One electron matrix time                ...   2.661 sec (  0.044 min) = 75.8%
 Schwartz matrix evaluation time         ...   0.477 sec (  0.008 min) = 13.6%
 Two index repulsion integral time       ...   0.184 sec (  0.003 min) =  5.2%
 Cholesky decomposition of V             ...   0.133 sec (  0.002 min) =  3.8%
 Three index repulsion integral time     ...   0.000 sec (  0.000 min) =  0.0%



           ************************************************************
           *        Program running with 24 parallel MPI-processes    *
           *              working on a common directory               *
           ************************************************************
-------------------------------------------------------------------------------
                                 ORCA SCF
-------------------------------------------------------------------------------

------------
SCF SETTINGS
------------
Hamiltonian:
 Density Functional     Method          .... DFT(GTOs)
 Exchange Functional    Exchange        .... B88
   X-Alpha parameter    XAlpha          ....  0.666667
   Becke's b parameter  XBeta           ....  0.004200
 Correlation Functional Correlation     .... LYP
 LDA part of GGA corr.  LDAOpt          .... VWN-5
 Gradients option       PostSCFGGA      .... off
 Hybrid DFT is turned on
   Fraction HF Exchange ScalHFX         ....  0.710000
   Scaling of DF-GGA-X  ScalDFX         ....  0.290000
   Scaling of DF-GGA-C  ScalDFC         ....  0.540000
   Scaling of DF-LDA-C  ScalLDAC        ....  0.540000
   Perturbative correction              ....  1.000000
   Density functional embedding theory  .... OFF
 RI-approximation to the Coulomb term is turned on
   Number of auxiliary basis functions  .... 1774
   RI-JK (J+K treated both via RI)      .... on


General Settings:
 Integral files         IntName         .... TMB20_C1
 Hartree-Fock type      HFTyp           .... RHF
 Total Charge           Charge          ....    0
 Multiplicity           Mult            ....    1
 Number of Electrons    NEL             ....  160
 Basis Dimension        Dim             ....  825
 Nuclear Repulsion      ENuc            ....   1745.9077640197 Eh

Convergence Acceleration:
 DIIS                   CNVDIIS         .... on
   Start iteration      DIISMaxIt       ....    12
   Startup error        DIISStart       ....  0.200000
   # of expansion vecs  DIISMaxEq       ....     5
   Bias factor          DIISBfac        ....   1.050
   Max. coefficient     DIISMaxC        ....  10.000
 Newton-Raphson         CNVNR           .... off
 SOSCF                  CNVSOSCF        .... off
 Level Shifting         CNVShift        .... on
   Level shift para.    LevelShift      ....    0.2500
   Turn off err/grad.   ShiftErr        ....    0.0010
 Zerner damping         CNVZerner       .... off
 Static damping         CNVDamp         .... on
   Fraction old density DampFac         ....    0.7000
   Max. Damping (<1)    DampMax         ....    0.9800
   Min. Damping (>=0)   DampMin         ....    0.0000
   Turn off err/grad.   DampErr         ....    0.1000
 Fernandez-Rico         CNVRico         .... off

SCF Procedure:
 Maximum # iterations   MaxIter         ....   125
 SCF integral mode      SCFMode         .... Direct
   Integral package                     .... LIBINT
 Reset frequency        DirectResetFreq ....    20
 Integral Threshold     Thresh          ....  1.000e-10 Eh
 Primitive CutOff       TCut            ....  1.000e-11 Eh

Convergence Tolerance:
 Convergence Check Mode ConvCheckMode   .... Total+1el-Energy
 Convergence forced     ConvForced      .... 0
 Energy Change          TolE            ....  1.000e-06 Eh
 1-El. energy change                    ....  1.000e-03 Eh
 DIIS Error             TolErr          ....  1.000e-06


Diagonalization of the overlap matrix:
Smallest eigenvalue                        ... 8.224e-07
Time for diagonalization                   ...    0.135 sec
Threshold for overlap eigenvalues          ... 1.000e-08
Number of eigenvalues below threshold      ... 0
Time for construction of square roots      ...    0.086 sec
Total time needed                          ...    0.224 sec

-------------------
DFT GRID GENERATION
-------------------

General Integration Accuracy     IntAcc      ...  4.670
Radial Grid Type                 RadialGrid  ... Gauss-Chebyshev
Angular Grid (max. acc.)         AngularGrid ... Lebedev-302
Angular grid pruning method      GridPruning ... 3 (G Style)
Weight generation scheme         WeightScheme... Becke
Basis function cutoff            BFCut       ...    1.0000e-10
Integration weight cutoff        WCut        ...    1.0000e-14
Grids for H and He will be reduced by one unit

# of grid points (after initial pruning)     ... 141600 (   0.0 sec)
# of grid points (after weights+screening)   ... 128092 (   0.1 sec)
nearest neighbour list constructed           ...    0.0 sec
Grid point re-assignment to atoms done       ...    0.0 sec
Grid point division into batches done        ...    0.5 sec
Reduced shell lists constructed in    1.0 sec

Total number of grid points                  ...   128092
Total number of batches                      ...     2015
Average number of points per batch           ...       63
Average number of grid points per atom       ...     5124
Average number of shells per batch           ...   181.94 (62.10%)
Average number of basis functions per batch  ...   528.95 (64.12%)
Average number of large shells per batch     ...   140.73 (77.35%)
Average number of large basis fcns per batch ...   410.49 (77.61%)
Average number of aux-shells per batch       ...   181.94 (34.46%)
Average number of aux functions per batch    ...   528.95 (29.82%)
Maximum spatial batch extension              ...   1.87,  1.90,  2.06 au
Average spatial batch extension              ...   0.04,  0.04,  0.04 au

Time for grid setup =    1.120 sec

------------------------------
INITIAL GUESS: MODEL POTENTIAL
------------------------------
Loading Hartree-Fock densities                     ... done
  calling /sw/apps/orca/orca_4_2_0_linux_x86-64_openmpi314/orca TMB20_C1_atom75.inp > TMB20_C1_atom75.out in order to generate an atomic fitting density for atom 0 (Re with ECP) on-the-fly... 
    atom 0 (Re), assumed electronic state with S=6: 1s2 2s2 2p6 3s2 3p6 4s2 3d10 4p6 5s2 4d10 5p6 6s2 4f14 5d5           ... done
Calculating cut-offs                               ... done
Setting up the integral package                    ... done
Initializing the effective Hamiltonian             ... done
Starting the Coulomb interaction                   ... done (   0.1 sec)
Reading the grid                                   ... done
Mapping shells                                     ... done
Starting the XC term evaluation                    ... done (   0.3 sec)
  promolecular density results
     # of electrons  =    219.998219601
     EX              =   -521.799073573
     EC              =     -1.212222830
     EX+EC           =   -523.011296403
Transforming the Hamiltonian                       ... done (   0.1 sec)
Diagonalizing the Hamiltonian                      ... done (   0.1 sec)
Back transforming the eigenvectors                 ... done (   0.0 sec)
Now organizing SCF variables                       ... done
                      ------------------
                      INITIAL GUESS DONE (   3.2 sec)
                      ------------------
--------------
SCF ITERATIONS
--------------
ITER       Energy         Delta-E        Max-DP      RMS-DP      [F,P]     Damp
  0  -3447.7743818924   0.000000000000 0.53225892  0.00265693  0.3478300 0.7000
  1  -3447.5627246881   0.211657204277 0.38572388  0.00205597  0.2683990 0.7000
                               ***Turning on DIIS***
  2  -3447.6998595726  -0.137134884439 0.28870824  0.00165055  0.1938405 0.7000
  3  -3447.9871240926  -0.287264520059 0.29229401  0.00138318  0.1335008 0.7000
  4  -3448.2559579410  -0.268833848386 0.66239872  0.00312448  0.0874879 0.0000
  5  -3448.4284523776  -0.172494436581 0.09124057  0.00042065  0.0418799 0.0000
  6  -3448.4419349052  -0.013482527567 0.01425297  0.00011764  0.0058211 0.0000
  7  -3448.4423689872  -0.000434082010 0.01569037  0.00005870  0.0048007 0.0000
  8  -3448.4424805292  -0.000111542058 0.01079542  0.00005983  0.0027451 0.0000
  9  -3448.4425359893  -0.000055460091 0.00815195  0.00004298  0.0006248 0.0000
 10  -3448.4425427295  -0.000006740127 0.00618813  0.00002299  0.0005781 0.0000
 11  -3448.4425447062  -0.000001976747 0.00794715  0.00003060  0.0002532 0.0000
 12  -3448.4425454118  -0.000000705618 0.00953789  0.00004335  0.0001316 0.0000
                 **** Energy Check signals convergence ****

               *****************************************************
               *                     SUCCESS                       *
               *           SCF CONVERGED AFTER  13 CYCLES          *
               *****************************************************


----------------
TOTAL SCF ENERGY
----------------

Total Energy       :        -3448.44254552 Eh          -93836.89224 eV

Components:
Nuclear Repulsion  :         1745.90776402 Eh           47508.56555 eV
Electronic Energy  :        -5194.35030954 Eh         -141345.45779 eV
One Electron Energy:        -8284.25313195 Eh         -225425.98816 eV
Two Electron Energy:         3089.90282241 Eh           84080.53037 eV

Virial components:
Potential Energy   :        -6841.90394883 Eh         -186177.67154 eV
Kinetic Energy     :         3393.46140331 Eh           92340.77930 eV
Virial Ratio       :            2.01620208


DFT components:
N(Alpha)           :       79.999990841174 electrons
N(Beta)            :       79.999990841174 electrons
N(Total)           :      159.999981682347 electrons
E(X)               :      -57.118422055221 Eh       
E(C)               :       -3.277951471330 Eh       
E(XC)              :      -60.396373526551 Eh       
DFET-embed. en.    :        0.000000000000 Eh       

---------------
SCF CONVERGENCE
---------------

  Last Energy change         ...   -1.0985e-07  Tolerance :   1.0000e-06
  Last MAX-Density change    ...    1.3212e-02  Tolerance :   1.0000e-05
  Last RMS-Density change    ...    4.9716e-05  Tolerance :   1.0000e-06
  Last DIIS Error            ...    4.4014e-05  Tolerance :   1.0000e-06

             **** THE GBW FILE WAS UPDATED (TMB20_C1.gbw) ****
             **** DENSITY FILE WAS UPDATED (TMB20_C1.scfp) ****
             **** ENERGY FILE WAS UPDATED (TMB20_C1.en.tmp) ****
             **** THE GBW FILE WAS UPDATED (TMB20_C1.gbw) ****
             **** DENSITY FILE WAS UPDATED (TMB20_C1.scfp) ****
----------------
ORBITAL ENERGIES
----------------

  NO   OCC          E(Eh)            E(eV) 
   0   2.0000    -487.380927    -13262.3093 
   1   2.0000     -64.132944     -1745.1461 
   2   2.0000     -57.653317     -1568.8265 
   3   2.0000     -57.652453     -1568.8030 
   4   2.0000     -57.652373     -1568.8008 
   5   2.0000     -20.147706      -548.2470 
   6   2.0000     -20.133127      -547.8502 
   7   2.0000     -20.129616      -547.7547 
   8   2.0000     -20.119635      -547.4831 
   9   2.0000     -20.108717      -547.1860 
  10   2.0000     -20.085467      -546.5533 
  11   2.0000     -11.060234      -300.9643 
  12   2.0000     -10.988278      -299.0063 
  13   2.0000     -10.988151      -299.0028 
  14   2.0000     -10.987743      -298.9917 
  15   2.0000     -10.973254      -298.5974 
  16   2.0000     -10.945624      -297.8456 
  17   2.0000     -10.902730      -296.6784 
  18   2.0000     -10.893027      -296.4143 
  19   2.0000     -10.876360      -295.9608 
  20   2.0000      -9.352917      -254.5058 
  21   2.0000      -7.040504      -191.5818 
  22   2.0000      -7.037002      -191.4866 
  23   2.0000      -7.036736      -191.4793 
  24   2.0000      -3.521560       -95.8265 
  25   2.0000      -2.916850       -79.3715 
  26   2.0000      -2.915617       -79.3380 
  27   2.0000      -2.915359       -79.3309 
  28   2.0000      -2.911718       -79.2319 
  29   2.0000      -2.911704       -79.2315 
  30   2.0000      -1.981805       -53.9277 
  31   2.0000      -1.980402       -53.8895 
  32   2.0000      -1.977707       -53.8161 
  33   2.0000      -1.413711       -38.4690 
  34   2.0000      -1.370546       -37.2944 
  35   2.0000      -1.360330       -37.0165 
  36   2.0000      -1.349267       -36.7154 
  37   2.0000      -1.330165       -36.1956 
  38   2.0000      -1.298796       -35.3420 
  39   2.0000      -1.012522       -27.5521 
  40   2.0000      -0.981876       -26.7182 
  41   2.0000      -0.930677       -25.3250 
  42   2.0000      -0.852047       -23.1854 
  43   2.0000      -0.817137       -22.2354 
  44   2.0000      -0.806695       -21.9513 
  45   2.0000      -0.739084       -20.1115 
  46   2.0000      -0.726649       -19.7731 
  47   2.0000      -0.713468       -19.4145 
  48   2.0000      -0.711028       -19.3480 
  49   2.0000      -0.705598       -19.2003 
  50   2.0000      -0.677600       -18.4384 
  51   2.0000      -0.665397       -18.1064 
  52   2.0000      -0.658487       -17.9183 
  53   2.0000      -0.640762       -17.4360 
  54   2.0000      -0.620309       -16.8795 
  55   2.0000      -0.609557       -16.5869 
  56   2.0000      -0.588024       -16.0009 
  57   2.0000      -0.586097       -15.9485 
  58   2.0000      -0.585794       -15.9403 
  59   2.0000      -0.580038       -15.7836 
  60   2.0000      -0.577145       -15.7049 
  61   2.0000      -0.573389       -15.6027 
  62   2.0000      -0.570202       -15.5160 
  63   2.0000      -0.561650       -15.2833 
  64   2.0000      -0.553493       -15.0613 
  65   2.0000      -0.550686       -14.9849 
  66   2.0000      -0.540956       -14.7201 
  67   2.0000      -0.537744       -14.6328 
  68   2.0000      -0.515193       -14.0191 
  69   2.0000      -0.483895       -13.1674 
  70   2.0000      -0.447818       -12.1858 
  71   2.0000      -0.436105       -11.8670 
  72   2.0000      -0.417639       -11.3645 
  73   2.0000      -0.365027        -9.9329 
  74   2.0000      -0.354490        -9.6462 
  75   2.0000      -0.350401        -9.5349 
  76   2.0000      -0.346397        -9.4259 
  77   2.0000      -0.297824        -8.1042 
  78   2.0000      -0.296386        -8.0651 
  79   2.0000      -0.286834        -7.8052 
  80   0.0000       0.001293         0.0352 
  81   0.0000       0.021801         0.5932 
  82   0.0000       0.023136         0.6296 
  83   0.0000       0.032547         0.8857 
  84   0.0000       0.046063         1.2534 
  85   0.0000       0.047530         1.2934 
  86   0.0000       0.051130         1.3913 
  87   0.0000       0.056860         1.5473 
  88   0.0000       0.061130         1.6634 
  89   0.0000       0.064547         1.7564 
  90   0.0000       0.068923         1.8755 
  91   0.0000       0.075252         2.0477 
  92   0.0000       0.077903         2.1198 
  93   0.0000       0.080886         2.2010 
  94   0.0000       0.083719         2.2781 
  95   0.0000       0.089708         2.4411 
  96   0.0000       0.092174         2.5082 
  97   0.0000       0.094923         2.5830 
  98   0.0000       0.102547         2.7904 
  99   0.0000       0.105197         2.8625 
 100   0.0000       0.107138         2.9154 
 101   0.0000       0.108861         2.9623 
 102   0.0000       0.115629         3.1464 
 103   0.0000       0.119123         3.2415 
 104   0.0000       0.120351         3.2749 
 105   0.0000       0.122729         3.3396 
 106   0.0000       0.123232         3.3533 
 107   0.0000       0.126822         3.4510 
 108   0.0000       0.131726         3.5845 
 109   0.0000       0.138414         3.7664 
 110   0.0000       0.142745         3.8843 
 111   0.0000       0.147792         4.0216 
 112   0.0000       0.151743         4.1291 
 113   0.0000       0.155479         4.2308 
 114   0.0000       0.157691         4.2910 
 115   0.0000       0.162968         4.4346 
 116   0.0000       0.167260         4.5514 
 117   0.0000       0.172780         4.7016 
 118   0.0000       0.172941         4.7060 
 119   0.0000       0.178462         4.8562 
 120   0.0000       0.179582         4.8867 
 121   0.0000       0.183541         4.9944 
 122   0.0000       0.189742         5.1631 
 123   0.0000       0.192610         5.2412 
 124   0.0000       0.195840         5.3291 
 125   0.0000       0.201742         5.4897 
 126   0.0000       0.205200         5.5838 
 127   0.0000       0.209211         5.6929 
 128   0.0000       0.211534         5.7561 
 129   0.0000       0.217140         5.9087 
 130   0.0000       0.218824         5.9545 
 131   0.0000       0.221697         6.0327 
 132   0.0000       0.225926         6.1478 
 133   0.0000       0.234717         6.3870 
 134   0.0000       0.241181         6.5629 
 135   0.0000       0.242658         6.6031 
 136   0.0000       0.251476         6.8430 
 137   0.0000       0.253424         6.8960 
 138   0.0000       0.257312         7.0018 
 139   0.0000       0.263353         7.1662 
 140   0.0000       0.263981         7.1833 
 141   0.0000       0.268647         7.3103 
 142   0.0000       0.272145         7.4054 
 143   0.0000       0.274888         7.4801 
 144   0.0000       0.276705         7.5295 
 145   0.0000       0.282604         7.6901 
 146   0.0000       0.282903         7.6982 
 147   0.0000       0.289853         7.8873 
 148   0.0000       0.292531         7.9602 
 149   0.0000       0.295298         8.0355 
 150   0.0000       0.300219         8.1694 
 151   0.0000       0.304882         8.2963 
 152   0.0000       0.308774         8.4022 
 153   0.0000       0.311949         8.4886 
 154   0.0000       0.313908         8.5419 
 155   0.0000       0.316595         8.6150 
 156   0.0000       0.317078         8.6281 
 157   0.0000       0.321689         8.7536 
 158   0.0000       0.324902         8.8410 
 159   0.0000       0.328563         8.9407 
 160   0.0000       0.330039         8.9808 
 161   0.0000       0.331320         9.0157 
 162   0.0000       0.337510         9.1841 
 163   0.0000       0.340014         9.2523 
 164   0.0000       0.343291         9.3414 
 165   0.0000       0.344482         9.3738 
 166   0.0000       0.346942         9.4408 
 167   0.0000       0.351133         9.5548 
 168   0.0000       0.358211         9.7474 
 169   0.0000       0.359155         9.7731 
 170   0.0000       0.365037         9.9332 
 171   0.0000       0.367983        10.0133 
 172   0.0000       0.374606        10.1936 
 173   0.0000       0.377700        10.2778 
 174   0.0000       0.384004        10.4493 
 175   0.0000       0.387092        10.5333 
 176   0.0000       0.389476        10.5982 
 177   0.0000       0.391706        10.6589 
 178   0.0000       0.395258        10.7555 
 179   0.0000       0.402293        10.9470 
 180   0.0000       0.403233        10.9725 
 181   0.0000       0.405494        11.0340 
 182   0.0000       0.407986        11.1019 
 183   0.0000       0.411114        11.1870 
 184   0.0000       0.415509        11.3066 
 185   0.0000       0.424720        11.5572 
 186   0.0000       0.428118        11.6497 
 187   0.0000       0.429376        11.6839 
 188   0.0000       0.431102        11.7309 
 189   0.0000       0.437554        11.9064 
 190   0.0000       0.438865        11.9421 
 191   0.0000       0.439991        11.9728 
 192   0.0000       0.446842        12.1592 
 193   0.0000       0.450771        12.2661 
 194   0.0000       0.453166        12.3313 
 195   0.0000       0.457212        12.4414 
 196   0.0000       0.465030        12.6541 
 197   0.0000       0.465293        12.6613 
 198   0.0000       0.472888        12.8679 
 199   0.0000       0.476114        12.9557 
 200   0.0000       0.480209        13.0671 
 201   0.0000       0.485706        13.2167 
 202   0.0000       0.488226        13.2853 
 203   0.0000       0.494594        13.4586 
 204   0.0000       0.498374        13.5615 
 205   0.0000       0.500864        13.6292 
 206   0.0000       0.501768        13.6538 
 207   0.0000       0.508597        13.8396 
 208   0.0000       0.513503        13.9731 
 209   0.0000       0.517173        14.0730 
 210   0.0000       0.520878        14.1738 
 211   0.0000       0.527202        14.3459 
 212   0.0000       0.536348        14.5948 
 213   0.0000       0.537547        14.6274 
 214   0.0000       0.540785        14.7155 
 215   0.0000       0.552613        15.0374 
 216   0.0000       0.558447        15.1961 
 217   0.0000       0.561126        15.2690 
 218   0.0000       0.563865        15.3435 
 219   0.0000       0.568169        15.4607 
 220   0.0000       0.575482        15.6597 
 221   0.0000       0.576010        15.6740 
 222   0.0000       0.579895        15.7797 
 223   0.0000       0.581657        15.8277 
 224   0.0000       0.587454        15.9854 
 225   0.0000       0.591393        16.0926 
 226   0.0000       0.597173        16.2499 
 227   0.0000       0.602457        16.3937 
 228   0.0000       0.607712        16.5367 
 229   0.0000       0.612215        16.6592 
 230   0.0000       0.614140        16.7116 
 231   0.0000       0.615940        16.7606 
 232   0.0000       0.619617        16.8606 
 233   0.0000       0.624858        17.0033 
 234   0.0000       0.626868        17.0579 
 235   0.0000       0.633002        17.2249 
 236   0.0000       0.635630        17.2964 
 237   0.0000       0.639254        17.3950 
 238   0.0000       0.645159        17.5557 
 239   0.0000       0.648090        17.6354 
 240   0.0000       0.652964        17.7680 
 241   0.0000       0.660150        17.9636 
 242   0.0000       0.665539        18.1102 
 243   0.0000       0.665902        18.1201 
 244   0.0000       0.669831        18.2270 
 245   0.0000       0.678865        18.4728 
 246   0.0000       0.681469        18.5437 
 247   0.0000       0.683614        18.6021 
 248   0.0000       0.689277        18.7562 
 249   0.0000       0.690371        18.7859 
 250   0.0000       0.694463        18.8973 
 251   0.0000       0.697283        18.9740 
 252   0.0000       0.700540        19.0627 
 253   0.0000       0.701756        19.0957 
 254   0.0000       0.711411        19.3585 
 255   0.0000       0.718542        19.5525 
 256   0.0000       0.722942        19.6723 
 257   0.0000       0.728916        19.8348 
 258   0.0000       0.730652        19.8820 
 259   0.0000       0.736232        20.0339 
 260   0.0000       0.741156        20.1679 
 261   0.0000       0.743801        20.2398 
 262   0.0000       0.747472        20.3398 
 263   0.0000       0.749281        20.3890 
 264   0.0000       0.754423        20.5289 
 265   0.0000       0.757815        20.6212 
 266   0.0000       0.760389        20.6912 
 267   0.0000       0.765670        20.8349 
 268   0.0000       0.775317        21.0975 
 269   0.0000       0.776742        21.1362 
 270   0.0000       0.780390        21.2355 
 271   0.0000       0.785197        21.3663 
 272   0.0000       0.787661        21.4334 
 273   0.0000       0.794984        21.6326 
 274   0.0000       0.799105        21.7447 
 275   0.0000       0.801825        21.8188 
 276   0.0000       0.804065        21.8797 
 277   0.0000       0.806342        21.9417 
 278   0.0000       0.810535        22.0558 
 279   0.0000       0.817176        22.2365 
 280   0.0000       0.821028        22.3413 
 281   0.0000       0.826666        22.4947 
 282   0.0000       0.828041        22.5321 
 283   0.0000       0.831429        22.6243 
 284   0.0000       0.839100        22.8331 
 285   0.0000       0.843199        22.9446 
 286   0.0000       0.846430        23.0325 
 287   0.0000       0.851643        23.1744 
 288   0.0000       0.854700        23.2576 
 289   0.0000       0.856915        23.3178 
 290   0.0000       0.866141        23.5689 
 291   0.0000       0.869430        23.6584 
 292   0.0000       0.875919        23.8350 
 293   0.0000       0.878382        23.9020 
 294   0.0000       0.884692        24.0737 
 295   0.0000       0.894083        24.3292 
 296   0.0000       0.896047        24.3827 
 297   0.0000       0.904898        24.6235 
 298   0.0000       0.912794        24.8384 
 299   0.0000       0.922585        25.1048 
 300   0.0000       0.932190        25.3662 
 301   0.0000       0.934454        25.4278 
 302   0.0000       0.937233        25.5034 
 303   0.0000       0.946340        25.7512 
 304   0.0000       0.951834        25.9007 
 305   0.0000       0.958854        26.0917 
 306   0.0000       0.961521        26.1643 
 307   0.0000       0.964713        26.2512 
 308   0.0000       0.971252        26.4291 
 309   0.0000       0.975125        26.5345 
 310   0.0000       0.986379        26.8407 
 311   0.0000       0.990593        26.9554 
 312   0.0000       0.997285        27.1375 
 313   0.0000       1.004528        27.3346 
 314   0.0000       1.008454        27.4414 
 315   0.0000       1.017281        27.6816 
 316   0.0000       1.019083        27.7307 
 317   0.0000       1.028638        27.9907 
 318   0.0000       1.032697        28.1011 
 319   0.0000       1.034887        28.1607 
 320   0.0000       1.044137        28.4124 
 321   0.0000       1.053963        28.6798 
 322   0.0000       1.059265        28.8241 
 323   0.0000       1.063505        28.9394 
 324   0.0000       1.068597        29.0780 
 325   0.0000       1.074391        29.2357 
 326   0.0000       1.080361        29.3981 
 327   0.0000       1.084666        29.5153 
 328   0.0000       1.088149        29.6100 
 329   0.0000       1.097296        29.8589 
 330   0.0000       1.108859        30.1736 
 331   0.0000       1.116885        30.3920 
 332   0.0000       1.120112        30.4798 
 333   0.0000       1.127677        30.6857 
 334   0.0000       1.129203        30.7272 
 335   0.0000       1.132550        30.8182 
 336   0.0000       1.142648        31.0930 
 337   0.0000       1.151904        31.3449 
 338   0.0000       1.161241        31.5990 
 339   0.0000       1.166424        31.7400 
 340   0.0000       1.171586        31.8805 
 341   0.0000       1.178177        32.0598 
 342   0.0000       1.179757        32.1028 
 343   0.0000       1.200306        32.6620 
 344   0.0000       1.204403        32.7735 
 345   0.0000       1.211334        32.9621 
 346   0.0000       1.217409        33.1274 
 347   0.0000       1.225894        33.3583 
 348   0.0000       1.227963        33.4146 
 349   0.0000       1.235007        33.6063 
 350   0.0000       1.246360        33.9152 
 351   0.0000       1.253994        34.1229 
 352   0.0000       1.260008        34.2866 
 353   0.0000       1.267339        34.4860 
 354   0.0000       1.269880        34.5552 
 355   0.0000       1.282601        34.9014 
 356   0.0000       1.290024        35.1033 
 357   0.0000       1.305771        35.5318 
 358   0.0000       1.318064        35.8663 
 359   0.0000       1.320678        35.9375 
 360   0.0000       1.333407        36.2839 
 361   0.0000       1.343627        36.5619 
 362   0.0000       1.348491        36.6943 
 363   0.0000       1.364658        37.1342 
 364   0.0000       1.370626        37.2966 
 365   0.0000       1.375669        37.4339 
 366   0.0000       1.382975        37.6327 
 367   0.0000       1.389666        37.8147 
 368   0.0000       1.400501        38.1096 
 369   0.0000       1.406459        38.2717 
 370   0.0000       1.414479        38.4899 
 371   0.0000       1.420894        38.6645 
 372   0.0000       1.422856        38.7179 
 373   0.0000       1.437191        39.1079 
 374   0.0000       1.439499        39.1707 
 375   0.0000       1.452971        39.5374 
 376   0.0000       1.460977        39.7552 
 377   0.0000       1.469892        39.9978 
 378   0.0000       1.472087        40.0575 
 379   0.0000       1.479660        40.2636 
 380   0.0000       1.481414        40.3113 
 381   0.0000       1.488757        40.5111 
 382   0.0000       1.498564        40.7780 
 383   0.0000       1.507259        41.0146 
 384   0.0000       1.526304        41.5328 
 385   0.0000       1.528540        41.5937 
 386   0.0000       1.530960        41.6595 
 387   0.0000       1.543204        41.9927 
 388   0.0000       1.550609        42.1942 
 389   0.0000       1.558418        42.4067 
 390   0.0000       1.581123        43.0246 
 391   0.0000       1.590012        43.2664 
 392   0.0000       1.598742        43.5040 
 393   0.0000       1.606195        43.7068 
 394   0.0000       1.613058        43.8935 
 395   0.0000       1.630202        44.3601 
 396   0.0000       1.635643        44.5081 
 397   0.0000       1.646936        44.8154 
 398   0.0000       1.670710        45.4623 
 399   0.0000       1.674009        45.5521 
 400   0.0000       1.697334        46.1868 
 401   0.0000       1.701801        46.3083 
 402   0.0000       1.712547        46.6008 
 403   0.0000       1.719592        46.7925 
 404   0.0000       1.731108        47.1058 
 405   0.0000       1.749710        47.6120 
 406   0.0000       1.758170        47.8422 
 407   0.0000       1.770535        48.1787 
 408   0.0000       1.776130        48.3310 
 409   0.0000       1.782785        48.5120 
 410   0.0000       1.792520        48.7770 
 411   0.0000       1.807396        49.1817 
 412   0.0000       1.810384        49.2631 
 413   0.0000       1.821905        49.5766 
 414   0.0000       1.823299        49.6145 
 415   0.0000       1.833060        49.8801 
 416   0.0000       1.840003        50.0690 
 417   0.0000       1.841219        50.1021 
 418   0.0000       1.853298        50.4308 
 419   0.0000       1.869965        50.8843 
 420   0.0000       1.886985        51.3475 
 421   0.0000       1.892676        51.5023 
 422   0.0000       1.900235        51.7080 
 423   0.0000       1.914744        52.1028 
 424   0.0000       1.916372        52.1471 
 425   0.0000       1.923192        52.3327 
 426   0.0000       1.924897        52.3791 
 427   0.0000       1.934271        52.6342 
 428   0.0000       1.943635        52.8890 
 429   0.0000       1.952406        53.1277 
 430   0.0000       1.964242        53.4497 
 431   0.0000       1.967996        53.5519 
 432   0.0000       1.971259        53.6407 
 433   0.0000       1.980550        53.8935 
 434   0.0000       1.983036        53.9611 
 435   0.0000       1.990030        54.1515 
 436   0.0000       1.992576        54.2208 
 437   0.0000       2.009638        54.6850 
 438   0.0000       2.013076        54.7786 
 439   0.0000       2.015935        54.8564 
 440   0.0000       2.025231        55.1093 
 441   0.0000       2.029629        55.2290 
 442   0.0000       2.041681        55.5570 
 443   0.0000       2.049372        55.7662 
 444   0.0000       2.061941        56.1083 
 445   0.0000       2.066311        56.2272 
 446   0.0000       2.075517        56.4777 
 447   0.0000       2.087430        56.8019 
 448   0.0000       2.096097        57.0377 
 449   0.0000       2.100048        57.1452 
 450   0.0000       2.114630        57.5420 
 451   0.0000       2.119754        57.6814 
 452   0.0000       2.126575        57.8670 
 453   0.0000       2.145698        58.3874 
 454   0.0000       2.164794        58.9070 
 455   0.0000       2.167636        58.9844 
 456   0.0000       2.176455        59.2244 
 457   0.0000       2.182276        59.3827 
 458   0.0000       2.190672        59.6112 
 459   0.0000       2.202118        59.9227 
 460   0.0000       2.205768        60.0220 
 461   0.0000       2.229300        60.6624 
 462   0.0000       2.240575        60.9691 
 463   0.0000       2.244652        61.0801 
 464   0.0000       2.259597        61.4868 
 465   0.0000       2.266169        61.6656 
 466   0.0000       2.268004        61.7155 
 467   0.0000       2.290157        62.3183 
 468   0.0000       2.300049        62.5875 
 469   0.0000       2.307785        62.7980 
 470   0.0000       2.311427        62.8971 
 471   0.0000       2.334065        63.5131 
 472   0.0000       2.344031        63.7843 
 473   0.0000       2.351519        63.9881 
 474   0.0000       2.381031        64.7911 
 475   0.0000       2.388557        64.9959 
 476   0.0000       2.396777        65.2196 
 477   0.0000       2.407573        65.5134 
 478   0.0000       2.412060        65.6355 
 479   0.0000       2.416496        65.7562 
 480   0.0000       2.428197        66.0746 
 481   0.0000       2.439127        66.3720 
 482   0.0000       2.441557        66.4381 
 483   0.0000       2.457016        66.8588 
 484   0.0000       2.485448        67.6325 
 485   0.0000       2.495738        67.9125 
 486   0.0000       2.514440        68.4214 
 487   0.0000       2.540906        69.1416 
 488   0.0000       2.566030        69.8252 
 489   0.0000       2.571325        69.9693 
 490   0.0000       2.590846        70.5005 
 491   0.0000       2.602111        70.8070 
 492   0.0000       2.606207        70.9185 
 493   0.0000       2.618439        71.2513 
 494   0.0000       2.631113        71.5962 
 495   0.0000       2.649082        72.0852 
 496   0.0000       2.656025        72.2741 
 497   0.0000       2.671028        72.6824 
 498   0.0000       2.682347        72.9904 
 499   0.0000       2.692022        73.2536 
 500   0.0000       2.721899        74.0666 
 501   0.0000       2.735259        74.4302 
 502   0.0000       2.752518        74.8998 
 503   0.0000       2.766407        75.2778 
 504   0.0000       2.776724        75.5585 
 505   0.0000       2.794414        76.0399 
 506   0.0000       2.812454        76.5308 
 507   0.0000       2.822547        76.8054 
 508   0.0000       2.839327        77.2620 
 509   0.0000       2.848761        77.5187 
 510   0.0000       2.854990        77.6882 
 511   0.0000       2.863785        77.9275 
 512   0.0000       2.871396        78.1347 
 513   0.0000       2.885771        78.5258 
 514   0.0000       2.890808        78.6629 
 515   0.0000       2.905407        79.0601 
 516   0.0000       2.909093        79.1605 
 517   0.0000       2.914980        79.3206 
 518   0.0000       2.923258        79.5459 
 519   0.0000       2.934216        79.8441 
 520   0.0000       2.943754        80.1036 
 521   0.0000       2.959154        80.5227 
 522   0.0000       2.962054        80.6016 
 523   0.0000       2.970481        80.8309 
 524   0.0000       2.974709        80.9460 
 525   0.0000       2.988231        81.3139 
 526   0.0000       2.996491        81.5387 
 527   0.0000       3.026924        82.3668 
 528   0.0000       3.031385        82.4882 
 529   0.0000       3.042285        82.7848 
 530   0.0000       3.043713        82.8236 
 531   0.0000       3.054955        83.1296 
 532   0.0000       3.069459        83.5242 
 533   0.0000       3.073068        83.6224 
 534   0.0000       3.081793        83.8599 
 535   0.0000       3.088359        84.0385 
 536   0.0000       3.093532        84.1793 
 537   0.0000       3.103274        84.4444 
 538   0.0000       3.120480        84.9126 
 539   0.0000       3.134836        85.3032 
 540   0.0000       3.138250        85.3961 
 541   0.0000       3.143621        85.5423 
 542   0.0000       3.160243        85.9946 
 543   0.0000       3.166874        86.1750 
 544   0.0000       3.170868        86.2837 
 545   0.0000       3.196550        86.9826 
 546   0.0000       3.199668        87.0674 
 547   0.0000       3.214069        87.4593 
 548   0.0000       3.221630        87.6650 
 549   0.0000       3.225735        87.7767 
 550   0.0000       3.232703        87.9663 
 551   0.0000       3.246197        88.3335 
 552   0.0000       3.257631        88.6446 
 553   0.0000       3.267926        88.9248 
 554   0.0000       3.268229        88.9330 
 555   0.0000       3.283045        89.3362 
 556   0.0000       3.289193        89.5035 
 557   0.0000       3.303576        89.8949 
 558   0.0000       3.311601        90.1133 
 559   0.0000       3.329141        90.5905 
 560   0.0000       3.335334        90.7591 
 561   0.0000       3.348757        91.1243 
 562   0.0000       3.351606        91.2018 
 563   0.0000       3.365965        91.5926 
 564   0.0000       3.369136        91.6788 
 565   0.0000       3.378130        91.9236 
 566   0.0000       3.383319        92.0648 
 567   0.0000       3.386323        92.1465 
 568   0.0000       3.395313        92.3912 
 569   0.0000       3.404383        92.6380 
 570   0.0000       3.407035        92.7101 
 571   0.0000       3.419574        93.0513 
 572   0.0000       3.427901        93.2779 
 573   0.0000       3.430536        93.3496 
 574   0.0000       3.435007        93.4713 
 575   0.0000       3.444105        93.7189 
 576   0.0000       3.452050        93.9351 
 577   0.0000       3.456010        94.0428 
 578   0.0000       3.466981        94.3414 
 579   0.0000       3.470665        94.4416 
 580   0.0000       3.486522        94.8731 
 581   0.0000       3.490492        94.9811 
 582   0.0000       3.494797        95.0983 
 583   0.0000       3.497534        95.1728 
 584   0.0000       3.513541        95.6083 
 585   0.0000       3.521504        95.8250 
 586   0.0000       3.525326        95.9290 
 587   0.0000       3.533488        96.1511 
 588   0.0000       3.544031        96.4380 
 589   0.0000       3.548041        96.5471 
 590   0.0000       3.563027        96.9549 
 591   0.0000       3.566699        97.0548 
 592   0.0000       3.580281        97.4244 
 593   0.0000       3.591184        97.7211 
 594   0.0000       3.596696        97.8711 
 595   0.0000       3.604768        98.0907 
 596   0.0000       3.615271        98.3765 
 597   0.0000       3.624922        98.6391 
 598   0.0000       3.634694        98.9050 
 599   0.0000       3.645728        99.2053 
 600   0.0000       3.663881        99.6993 
 601   0.0000       3.667466        99.7968 
 602   0.0000       3.675399       100.0127 
 603   0.0000       3.686509       100.3150 
 604   0.0000       3.692116       100.4676 
 605   0.0000       3.693465       100.5043 
 606   0.0000       3.699320       100.6636 
 607   0.0000       3.705051       100.8196 
 608   0.0000       3.709962       100.9532 
 609   0.0000       3.723050       101.3094 
 610   0.0000       3.731843       101.5486 
 611   0.0000       3.741661       101.8158 
 612   0.0000       3.754001       102.1516 
 613   0.0000       3.757686       102.2518 
 614   0.0000       3.759670       102.3058 
 615   0.0000       3.771375       102.6243 
 616   0.0000       3.773150       102.6726 
 617   0.0000       3.786546       103.0372 
 618   0.0000       3.787897       103.0739 
 619   0.0000       3.807041       103.5949 
 620   0.0000       3.813325       103.7658 
 621   0.0000       3.821047       103.9760 
 622   0.0000       3.834452       104.3407 
 623   0.0000       3.850432       104.7756 
 624   0.0000       3.861435       105.0750 
 625   0.0000       3.872740       105.3826 
 626   0.0000       3.908826       106.3645 
 627   0.0000       3.926911       106.8567 
 628   0.0000       3.930576       106.9564 
 629   0.0000       3.947990       107.4303 
 630   0.0000       3.984166       108.4147 
 631   0.0000       3.991370       108.6107 
 632   0.0000       4.002273       108.9074 
 633   0.0000       4.014659       109.2444 
 634   0.0000       4.029132       109.6383 
 635   0.0000       4.037837       109.8751 
 636   0.0000       4.045688       110.0888 
 637   0.0000       4.050558       110.2213 
 638   0.0000       4.054039       110.3160 
 639   0.0000       4.079647       111.0128 
 640   0.0000       4.082037       111.0779 
 641   0.0000       4.097119       111.4883 
 642   0.0000       4.129101       112.3585 
 643   0.0000       4.143500       112.7504 
 644   0.0000       4.167561       113.4051 
 645   0.0000       4.172229       113.5321 
 646   0.0000       4.179393       113.7271 
 647   0.0000       4.201446       114.3272 
 648   0.0000       4.216251       114.7300 
 649   0.0000       4.227546       115.0374 
 650   0.0000       4.243731       115.4778 
 651   0.0000       4.245047       115.5136 
 652   0.0000       4.258504       115.8798 
 653   0.0000       4.268907       116.1629 
 654   0.0000       4.273674       116.2926 
 655   0.0000       4.279948       116.4633 
 656   0.0000       4.294758       116.8663 
 657   0.0000       4.311312       117.3168 
 658   0.0000       4.320987       117.5800 
 659   0.0000       4.331174       117.8572 
 660   0.0000       4.338868       118.0666 
 661   0.0000       4.349378       118.3526 
 662   0.0000       4.351477       118.4097 
 663   0.0000       4.361674       118.6872 
 664   0.0000       4.379424       119.1702 
 665   0.0000       4.417714       120.2121 
 666   0.0000       4.419652       120.2648 
 667   0.0000       4.442839       120.8958 
 668   0.0000       4.453306       121.1806 
 669   0.0000       4.468448       121.5927 
 670   0.0000       4.490802       122.2009 
 671   0.0000       4.503825       122.5553 
 672   0.0000       4.510199       122.7288 
 673   0.0000       4.526090       123.1612 
 674   0.0000       4.542342       123.6034 
 675   0.0000       4.557840       124.0251 
 676   0.0000       4.598797       125.1396 
 677   0.0000       4.604457       125.2937 
 678   0.0000       4.622033       125.7719 
 679   0.0000       4.627218       125.9130 
 680   0.0000       4.651693       126.5790 
 681   0.0000       4.664521       126.9281 
 682   0.0000       4.670453       127.0895 
 683   0.0000       4.672146       127.1356 
 684   0.0000       4.690013       127.6217 
 685   0.0000       4.699704       127.8855 
 686   0.0000       4.717360       128.3659 
 687   0.0000       4.732647       128.7819 
 688   0.0000       4.804312       130.7320 
 689   0.0000       4.806558       130.7931 
 690   0.0000       4.814364       131.0055 
 691   0.0000       4.837551       131.6365 
 692   0.0000       4.856303       132.1467 
 693   0.0000       4.872774       132.5949 
 694   0.0000       4.912896       133.6867 
 695   0.0000       4.933328       134.2427 
 696   0.0000       4.943885       134.5299 
 697   0.0000       4.977986       135.4579 
 698   0.0000       5.037385       137.0742 
 699   0.0000       5.128772       139.5610 
 700   0.0000       5.136385       139.7681 
 701   0.0000       5.159129       140.3870 
 702   0.0000       5.186608       141.1348 
 703   0.0000       5.193760       141.3294 
 704   0.0000       5.194758       141.3565 
 705   0.0000       5.223316       142.1336 
 706   0.0000       5.275267       143.5473 
 707   0.0000       5.296805       144.1334 
 708   0.0000       5.327399       144.9659 
 709   0.0000       5.337375       145.2374 
 710   0.0000       5.374447       146.2461 
 711   0.0000       5.379012       146.3704 
 712   0.0000       5.381959       146.4505 
 713   0.0000       5.382327       146.4606 
 714   0.0000       5.386307       146.5689 
 715   0.0000       5.390155       146.6736 
 716   0.0000       5.398319       146.8957 
 717   0.0000       5.399898       146.9387 
 718   0.0000       5.400427       146.9531 
 719   0.0000       5.411535       147.2554 
 720   0.0000       5.424558       147.6097 
 721   0.0000       5.447671       148.2387 
 722   0.0000       5.481723       149.1653 
 723   0.0000       5.504575       149.7871 
 724   0.0000       5.511484       149.9751 
 725   0.0000       5.542968       150.8318 
 726   0.0000       5.551824       151.0728 
 727   0.0000       5.577738       151.7780 
 728   0.0000       5.611747       152.7034 
 729   0.0000       5.621222       152.9612 
 730   0.0000       5.648029       153.6907 
 731   0.0000       5.688713       154.7977 
 732   0.0000       5.697381       155.0336 
 733   0.0000       5.757923       156.6810 
 734   0.0000       5.776682       157.1915 
 735   0.0000       5.799750       157.8192 
 736   0.0000       5.808100       158.0464 
 737   0.0000       5.823641       158.4693 
 738   0.0000       5.843727       159.0159 
 739   0.0000       5.853192       159.2734 
 740   0.0000       5.862671       159.5314 
 741   0.0000       5.864521       159.5817 
 742   0.0000       5.871643       159.7755 
 743   0.0000       5.873206       159.8181 
 744   0.0000       5.884364       160.1217 
 745   0.0000       5.892810       160.3515 
 746   0.0000       5.972819       162.5287 
 747   0.0000       6.002068       163.3246 
 748   0.0000       6.060493       164.9144 
 749   0.0000       6.128699       166.7704 
 750   0.0000       6.243986       169.9075 
 751   0.0000       6.331671       172.2935 
 752   0.0000       6.347627       172.7277 
 753   0.0000       6.387021       173.7997 
 754   0.0000       6.391114       173.9111 
 755   0.0000       6.475771       176.2147 
 756   0.0000       6.562757       178.5817 
 757   0.0000       6.594870       179.4555 
 758   0.0000       6.614848       179.9992 
 759   0.0000       6.759177       183.9266 
 760   0.0000       6.762304       184.0116 
 761   0.0000       6.766425       184.1238 
 762   0.0000       6.768991       184.1936 
 763   0.0000       6.773909       184.3274 
 764   0.0000       6.784438       184.6139 
 765   0.0000       6.787683       184.7023 
 766   0.0000       6.796397       184.9394 
 767   0.0000       6.798448       184.9952 
 768   0.0000       6.801610       185.0812 
 769   0.0000       6.807016       185.2283 
 770   0.0000       6.817209       185.5057 
 771   0.0000       6.826783       185.7662 
 772   0.0000       6.844987       186.2616 
 773   0.0000       6.929127       188.5511 
 774   0.0000       6.951161       189.1507 
 775   0.0000       6.976645       189.8442 
 776   0.0000       6.979907       189.9329 
 777   0.0000       6.988849       190.1763 
 778   0.0000       6.991831       190.2574 
 779   0.0000       7.068187       192.3352 
 780   0.0000       7.089053       192.9029 
 781   0.0000       7.141921       194.3416 
 782   0.0000       7.192411       195.7154 
 783   0.0000       7.201593       195.9653 
 784   0.0000       7.208307       196.1480 
 785   0.0000       7.216949       196.3832 
 786   0.0000       7.219990       196.4659 
 787   0.0000       7.226435       196.6413 
 788   0.0000       7.232886       196.8168 
 789   0.0000       7.246295       197.1817 
 790   0.0000       7.263475       197.6492 
 791   0.0000       7.282304       198.1616 
 792   0.0000       7.360013       200.2761 
 793   0.0000       7.439588       202.4415 
 794   0.0000       7.550440       205.4579 
 795   0.0000       7.555682       205.6006 
 796   0.0000       7.564889       205.8511 
 797   0.0000       7.623278       207.4399 
 798   0.0000       7.683857       209.0884 
 799   0.0000       7.705176       209.6685 
 800   0.0000       7.747610       210.8232 
 801   0.0000       7.855666       213.7636 
 802   0.0000       8.048983       219.0240 
 803   0.0000       8.188324       222.8156 
 804   0.0000       8.481803       230.8016 
 805   0.0000      23.934793       651.2988 
 806   0.0000      24.022259       653.6789 
 807   0.0000      24.079300       655.2311 
 808   0.0000      24.120267       656.3458 
 809   0.0000      24.153751       657.2570 
 810   0.0000      24.249405       659.8599 
 811   0.0000      24.454566       665.4426 
 812   0.0000      24.514597       667.0761 
 813   0.0000      24.580292       668.8638 
 814   0.0000      45.262458      1231.6541 
 815   0.0000      45.286247      1232.3014 
 816   0.0000      45.306760      1232.8596 
 817   0.0000      45.418723      1235.9063 
 818   0.0000      45.476789      1237.4864 
 819   0.0000      45.595921      1240.7281 
 820   0.0000      49.539837      1348.0475 
 821   0.0000      50.283352      1368.2796 
 822   0.0000      50.501620      1374.2189 
 823   0.0000      68.393700      1861.0872 
 824   0.0000     511.586011     13920.9631 

                    ********************************
                    * MULLIKEN POPULATION ANALYSIS *
                    ********************************

-----------------------
MULLIKEN ATOMIC CHARGES
-----------------------
   0 Re:    0.762265
   1 C :    0.376790
   2 C :    0.647806
   3 C :    0.217056
   4 Br:   -0.747770
   5 O :   -0.443539
   6 O :   -0.350408
   7 O :   -0.431763
   8 C :   -0.036174
   9 C :   -0.004958
  10 C :   -0.735229
  11 C :    0.992754
  12 O :   -0.455524
  13 O :   -0.336488
  14 C :    0.888751
  15 O :   -0.877495
  16 H :    0.406905
  17 C :   -0.042856
  18 H :    0.055367
  19 H :    0.110800
  20 H :    0.109253
  21 H :    0.017172
  22 H :   -0.066525
  23 H :   -0.025264
  24 H :   -0.030926
Sum of atomic charges:   -0.0000000

--------------------------------
MULLIKEN REDUCED ORBITAL CHARGES
--------------------------------
  0 Res       :     2.057181  s :     2.057181
      pz      :     2.206373  p :     6.565026
      px      :     2.335116
      py      :     2.023537
      dz2     :     0.604510  d :     5.435247
      dxz     :     1.459964
      dyz     :     1.269324
      dx2y2   :     0.880490
      dxy     :     1.220959
      f0      :     0.038008  f :     0.173267
      f+1     :     0.028425
      f-1     :     0.022259
      f+2     :     0.012481
      f-2     :     0.007760
      f+3     :     0.031230
      f-3     :     0.033106
      g0      :     0.001166  g :     0.007014
      g+1     :     0.000692
      g-1     :     0.001151
      g+2     :     0.000769
      g-2     :     0.000442
      g+3     :     0.000386
      g-3     :     0.000265
      g+4     :     0.000647
      g-4     :     0.001495
  1 C s       :     3.440327  s :     3.440327
      pz      :     0.874032  p :     2.022274
      px      :     0.576132
      py      :     0.572110
      dz2     :     0.006649  d :     0.140418
      dxz     :     0.069527
      dyz     :     0.047822
      dx2y2   :     0.009980
      dxy     :     0.006441
      f0      :     0.006021  f :     0.020191
      f+1     :     0.006204
      f-1     :     0.005747
      f+2     :     0.001031
      f-2     :     0.001090
      f+3     :     0.000050
      f-3     :     0.000049
  2 C s       :     3.184662  s :     3.184662
      pz      :     0.577055  p :     1.996945
      px      :     0.839206
      py      :     0.580684
      dz2     :     0.007909  d :     0.149539
      dxz     :     0.069453
      dyz     :     0.007908
      dx2y2   :     0.029970
      dxy     :     0.034298
      f0      :     0.002656  f :     0.021049
      f+1     :     0.002285
      f-1     :     0.000615
      f+2     :     0.003294
      f-2     :     0.001598
      f+3     :     0.005698
      f-3     :     0.004902
  3 C s       :     3.443332  s :     3.443332
      pz      :     0.624141  p :     2.113684
      px      :     0.656323
      py      :     0.833221
      dz2     :     0.022398  d :     0.205375
      dxz     :     0.017700
      dyz     :     0.066495
      dx2y2   :     0.039589
      dxy     :     0.059192
      f0      :     0.002004  f :     0.020552
      f+1     :     0.000640
      f-1     :     0.003239
      f+2     :     0.002895
      f-2     :     0.002260
      f+3     :     0.004219
      f-3     :     0.005296
  4 Brs       :     8.110624  s :     8.110624
      pz      :     5.975248  p :    17.611774
      px      :     5.917331
      py      :     5.719195
      dz2     :     2.002567  d :    10.023052
      dxz     :     2.001697
      dyz     :     2.007195
      dx2y2   :     2.005130
      dxy     :     2.006463
      f0      :     0.000257  f :     0.002321
      f+1     :     0.000085
      f-1     :     0.000308
      f+2     :     0.000314
      f-2     :     0.000282
      f+3     :     0.000461
      f-3     :     0.000615
  5 O s       :     3.960626  s :     3.960626
      pz      :     1.529838  p :     4.432699
      px      :     1.528239
      py      :     1.374621
      dz2     :     0.005351  d :     0.048313
      dxz     :     0.002300
      dyz     :     0.013591
      dx2y2   :     0.013181
      dxy     :     0.013890
      f0      :     0.000183  f :     0.001902
      f+1     :     0.000057
      f-1     :     0.000301
      f+2     :     0.000268
      f-2     :     0.000200
      f+3     :     0.000389
      f-3     :     0.000504
  6 O s       :     3.919270  s :     3.919270
      pz      :     1.361259  p :     4.376568
      px      :     1.531943
      py      :     1.483366
      dz2     :     0.016130  d :     0.052578
      dxz     :     0.017153
      dyz     :     0.017229
      dx2y2   :     0.000917
      dxy     :     0.001149
      f0      :     0.000583  f :     0.001992
      f+1     :     0.000623
      f-1     :     0.000587
      f+2     :     0.000097
      f-2     :     0.000097
      f+3     :     0.000003
      f-3     :     0.000003
  7 O s       :     3.959682  s :     3.959682
      pz      :     1.531734  p :     4.417709
      px      :     1.370172
      py      :     1.515802
      dz2     :     0.004253  d :     0.052447
      dxz     :     0.016197
      dyz     :     0.001511
      dx2y2   :     0.014090
      dxy     :     0.016398
      f0      :     0.000251  f :     0.001925
      f+1     :     0.000200
      f-1     :     0.000056
      f+2     :     0.000298
      f-2     :     0.000141
      f+3     :     0.000524
      f-3     :     0.000455
  8 C s       :     3.318730  s :     3.318730
      pz      :     1.001988  p :     2.688283
      px      :     1.006309
      py      :     0.679985
      dz2     :     0.002112  d :     0.021099
      dxz     :     0.001286
      dyz     :    -0.006940
      dx2y2   :     0.008854
      dxy     :     0.015787
      f0      :     0.001133  f :     0.008062
      f+1     :     0.000292
      f-1     :     0.000704
      f+2     :     0.001357
      f-2     :     0.000599
      f+3     :     0.001910
      f-3     :     0.002067
  9 C s       :     3.344254  s :     3.344254
      pz      :     0.961079  p :     2.681939
      px      :     0.928020
      py      :     0.792840
      dz2     :    -0.011936  d :    -0.029338
      dxz     :    -0.003354
      dyz     :    -0.037156
      dx2y2   :     0.006372
      dxy     :     0.016737
      f0      :     0.001050  f :     0.008103
      f+1     :     0.000371
      f-1     :     0.000991
      f+2     :     0.001450
      f-2     :     0.000907
      f+3     :     0.001610
      f-3     :     0.001724
 10 C s       :     3.849157  s :     3.849157
      pz      :     1.263617  p :     2.853942
      px      :     0.712356
      py      :     0.877968
      dz2     :     0.007907  d :     0.024079
      dxz     :     0.014599
      dyz     :     0.016541
      dx2y2   :    -0.021392
      dxy     :     0.006424
      f0      :     0.001604  f :     0.008051
      f+1     :     0.000928
      f-1     :     0.000932
      f+2     :     0.000408
      f-2     :     0.000430
      f+3     :     0.001582
      f-3     :     0.002168
 11 C s       :     2.886692  s :     2.886692
      pz      :     0.629790  p :     1.905689
      px      :     0.592120
      py      :     0.683779
      dz2     :    -0.001187  d :     0.187994
      dxz     :     0.069455
      dyz     :     0.062067
      dx2y2   :     0.039236
      dxy     :     0.018424
      f0      :     0.003645  f :     0.026872
      f+1     :     0.001443
      f-1     :     0.001307
      f+2     :     0.004078
      f-2     :     0.002626
      f+3     :     0.004454
      f-3     :     0.009318
 12 O s       :     3.917587  s :     3.917587
      pz      :     1.729612  p :     4.503358
      px      :     1.341154
      py      :     1.432593
      dz2     :     0.006238  d :     0.032982
      dxz     :    -0.001162
      dyz     :     0.009739
      dx2y2   :     0.014789
      dxy     :     0.003378
      f0      :     0.000262  f :     0.001597
      f+1     :     0.000209
      f-1     :     0.000275
      f+2     :     0.000074
      f-2     :     0.000144
      f+3     :     0.000382
      f-3     :     0.000251
 13 O s       :     3.838909  s :     3.838909
      pz      :     1.745573  p :     4.465924
      px      :     1.241064
      py      :     1.479287
[...]
  9 C s       :     2.744458  s :     2.744458
      pz      :     0.835604  p :     2.684408
      px      :     0.783355
      py      :     1.065449
      dz2     :     0.090994  d :     0.559693
      dxz     :     0.067937
      dyz     :     0.184193
      dx2y2   :     0.114763
      dxy     :     0.101806
      f0      :     0.005400  f :     0.036981
      f+1     :     0.001939
      f-1     :     0.005953
      f+2     :     0.005458
      f-2     :     0.002999
      f+3     :     0.007962
      f-3     :     0.007271
 10 C s       :     2.616759  s :     2.616759
      pz      :     0.886153  p :     2.681896
      px      :     0.908397
      py      :     0.887346
      dz2     :     0.061653  d :     0.547584
      dxz     :     0.061543
      dyz     :     0.036850
      dx2y2   :     0.179399
      dxy     :     0.208139
      f0      :     0.002551  f :     0.040540
      f+1     :     0.004516
      f-1     :     0.004080
      f+2     :     0.003038
      f-2     :     0.002725
      f+3     :     0.010906
      f-3     :     0.012725
 11 C s       :     2.594416  s :     2.594416
      pz      :     0.568908  p :     2.246593
      px      :     0.793572
      py      :     0.884113
      dz2     :     0.107112  d :     1.295416
      dxz     :     0.217714
      dyz     :     0.234273
      dx2y2   :     0.394635
      dxy     :     0.341681
      f0      :     0.012445  f :     0.161935
      f+1     :     0.010730
      f-1     :     0.009036
      f+2     :     0.026033
      f-2     :     0.017353
      f+3     :     0.028043
      f-3     :     0.058295
 12 O s       :     3.123833  s :     3.123833
      pz      :     1.467167  p :     4.229136
      px      :     1.327021
      py      :     1.434949
      dz2     :     0.042243  d :     0.308953
      dxz     :     0.020704
      dyz     :     0.044993
      dx2y2   :     0.114035
      dxy     :     0.086976
      f0      :     0.000324  f :     0.005874
      f+1     :     0.000483
      f-1     :     0.000540
      f+2     :     0.000443
      f-2     :     0.000394
      f+3     :     0.001806
      f-3     :     0.001883
 13 O s       :     3.161673  s :     3.161673
      pz      :     1.522488  p :     4.287634
      px      :     1.328798
      py      :     1.436348
      dz2     :     0.050785  d :     0.511816
      dxz     :     0.073622
      dyz     :     0.074915
      dx2y2   :     0.159116
      dxy     :     0.153377
      f0      :     0.000593  f :     0.006858
      f+1     :     0.000893
      f-1     :     0.000328
      f+2     :     0.000821
      f-2     :     0.000377
      f+3     :     0.001528
      f-3     :     0.002318
 14 C s       :     2.644447  s :     2.644447
      pz      :     0.556446  p :     2.357115
      px      :     0.937552
      py      :     0.863117
      dz2     :     0.078347  d :     0.975213
      dxz     :     0.192523
      dyz     :     0.100344
      dx2y2   :     0.298791
      dxy     :     0.305209
      f0      :     0.007313  f :     0.101482
      f+1     :     0.005535
      f-1     :     0.007665
      f+2     :     0.011983
      f-2     :     0.013087
      f+3     :     0.018474
      f-3     :     0.037426
 15 O s       :     3.242063  s :     3.242063
      pz      :     1.451299  p :     4.456863
      px      :     1.513003
      py      :     1.492561
      dz2     :     0.064170  d :     0.501830
      dxz     :     0.075101
      dyz     :     0.045797
      dx2y2   :     0.155939
      dxy     :     0.160824
      f0      :     0.000369  f :     0.005268
      f+1     :     0.000383
      f-1     :     0.000593
      f+2     :     0.000172
      f-2     :     0.000507
      f+3     :     0.001340
      f-3     :     0.001903
 16 H s       :     0.498620  s :     0.498620
      pz      :     0.114592  p :     0.617048
      px      :     0.332333
      py      :     0.170123
      dz2     :     0.008994  d :     0.092078
      dxz     :     0.026683
      dyz     :     0.000760
      dx2y2   :     0.024948
      dxy     :     0.030692
 17 C s       :     2.626188  s :     2.626188
      pz      :     0.935361  p :     2.522675
      px      :     0.852644
      py      :     0.734670
      dz2     :     0.089252  d :     0.582808
      dxz     :     0.034391
      dyz     :     0.173125
      dx2y2   :     0.177361
      dxy     :     0.108680
      f0      :     0.005605  f :     0.062489
      f+1     :     0.006241
      f-1     :     0.009569
      f+2     :     0.003841
      f-2     :     0.009332
      f+3     :     0.014692
      f-3     :     0.013208
 18 H s       :     0.704476  s :     0.704476
      pz      :     0.073486  p :     0.250863
      px      :     0.123491
      py      :     0.053886
      dz2     :     0.002794  d :     0.028587
      dxz     :     0.009167
      dyz     :     0.000952
      dx2y2   :     0.008256
      dxy     :     0.007418
 19 H s       :     0.694158  s :     0.694158
      pz      :     0.116408  p :     0.258354
      px      :     0.075529
      py      :     0.066416
      dz2     :     0.009610  d :     0.028513
      dxz     :     0.005602
      dyz     :     0.008017
      dx2y2   :     0.002363
      dxy     :     0.002921
 20 H s       :     0.694440  s :     0.694440
      pz      :     0.111845  p :     0.258204
      px      :     0.074482
      py      :     0.071877
      dz2     :     0.008945  d :     0.028505
      dxz     :     0.005027
      dyz     :     0.008145
      dx2y2   :     0.002907
      dxy     :     0.003480
 21 H s       :     0.714326  s :     0.714326
      pz      :     0.111966  p :     0.327282
      px      :     0.078997
      py      :     0.136319
      dz2     :     0.004815  d :     0.029193
      dxz     :     0.002472
      dyz     :     0.009308
      dx2y2   :     0.006399
      dxy     :     0.006199
 22 H s       :     0.691515  s :     0.691515
      pz      :     0.092615  p :     0.270802
      px      :     0.075866
      py      :     0.102321
      dz2     :     0.002728  d :     0.030292
      dxz     :     0.002846
      dyz     :     0.008151
      dx2y2   :     0.008256
      dxy     :     0.008311
 23 H s       :     0.717512  s :     0.717512
      pz      :     0.086891  p :     0.297805
      px      :     0.082942
      py      :     0.127972
      dz2     :     0.003206  d :     0.028875
      dxz     :     0.000856
      dyz     :     0.008345
      dx2y2   :     0.008493
      dxy     :     0.007975
 24 H s       :     0.691918  s :     0.691918
      pz      :     0.048156  p :     0.238888
      px      :     0.085394
      py      :     0.105337
      dz2     :     0.002902  d :     0.025882
      dxz     :     0.001461
      dyz     :     0.003926
      dx2y2   :     0.008747
      dxy     :     0.008846


                      *****************************
                      * MAYER POPULATION ANALYSIS *
                      *****************************

  NA   - Mulliken gross atomic population
  ZA   - Total nuclear charge
  QA   - Mulliken gross atomic charge
  VA   - Mayer's total valence
  BVA  - Mayer's bonded valence
  FA   - Mayer's free valence

  ATOM       NA         ZA         QA         VA         BVA        FA
  0 Re    14.2377    15.0000     0.7623     5.1302     5.1302     0.0000
  1 C      5.6232     6.0000     0.3768     3.2343     3.2343    -0.0000
  2 C      5.3522     6.0000     0.6478     3.2619     3.2619     0.0000
  3 C      5.7829     6.0000     0.2171     3.4049     3.4049    -0.0000
  4 Br    35.7478    35.0000    -0.7478     0.4751     0.4751    -0.0000
  5 O      8.4435     8.0000    -0.4435     2.1634     2.1634     0.0000
  6 O      8.3504     8.0000    -0.3504     2.2135     2.2135    -0.0000
  7 O      8.4318     8.0000    -0.4318     2.2242     2.2242    -0.0000
  8 C      6.0362     6.0000    -0.0362     3.5366     3.5366     0.0000
  9 C      6.0050     6.0000    -0.0050     3.3958     3.3958    -0.0000
 10 C      6.7352     6.0000    -0.7352     2.9190     2.9190     0.0000
 11 C      5.0072     6.0000     0.9928     3.2270     3.2270     0.0000
 12 O      8.4555     8.0000    -0.4555     1.7859     1.7859    -0.0000
 13 O      8.3365     8.0000    -0.3365     1.7112     1.7112     0.0000
 14 C      5.1112     6.0000     0.8888     3.3095     3.3095     0.0000
 15 O      8.8775     8.0000    -0.8775     1.7031     1.7031    -0.0000
 16 H      0.5931     1.0000     0.4069     0.7625     0.7625    -0.0000
 17 C      6.0429     6.0000    -0.0429     3.8083     3.8083    -0.0000
 18 H      0.9446     1.0000     0.0554     1.0063     1.0063    -0.0000
 19 H      0.8892     1.0000     0.1108     1.0327     1.0327    -0.0000
 20 H      0.8907     1.0000     0.1093     1.0327     1.0327    -0.0000
 21 H      0.9828     1.0000     0.0172     1.0192     1.0192    -0.0000
 22 H      1.0665     1.0000    -0.0665     1.0417     1.0417     0.0000
 23 H      1.0253     1.0000    -0.0253     1.0142     1.0142     0.0000
 24 H      1.0309     1.0000    -0.0309     0.8644     0.8644    -0.0000

  Mayer bond orders larger than 0.100000
B(  0-Re,  1-C ) :   0.9264 B(  0-Re,  2-C ) :   1.3870 B(  0-Re,  3-C ) :   1.1978 
B(  0-Re,  4-Br) :   0.2081 B(  0-Re,  7-O ) :   0.1094 B(  0-Re,  8-C ) :   0.5800 
B(  0-Re,  9-C ) :   0.3779 B(  0-Re, 15-O ) :   0.2387 B(  1-C ,  2-C ) :  -0.1307 
B(  1-C ,  4-Br) :   0.1163 B(  1-C ,  6-O ) :   2.1282 B(  2-C ,  7-O ) :   2.0717 
B(  3-C ,  5-O ) :   2.0448 B(  3-C ,  8-C ) :   0.1033 B(  8-C ,  9-C ) :   1.9626 
B(  8-C , 21-H ) :  -0.1340 B(  8-C , 23-H ) :   1.1135 B(  9-C , 21-H ) :   1.1339 
B(  9-C , 23-H ) :  -0.1233 B( 10-C , 11-C ) :   0.8895 B( 10-C , 14-C ) :   1.0402 
B( 10-C , 22-H ) :   1.2427 B( 10-C , 24-H ) :  -0.1608 B( 11-C , 12-O ) :   1.0897 
B( 11-C , 13-O ) :   1.0141 B( 11-C , 14-C ) :   0.1511 B( 11-C , 15-O ) :   0.1623 
B( 12-O , 16-H ) :   0.7709 B( 13-O , 17-C ) :   0.7981 B( 14-C , 15-O ) :   1.0866 
B( 14-C , 22-H ) :  -0.1229 B( 14-C , 24-H ) :   1.0415 B( 17-C , 18-H ) :   1.0501 
B( 17-C , 19-H ) :   0.9913 B( 17-C , 20-H ) :   0.9909 

-------
TIMINGS
-------

Total SCF time: 0 days 0 hours 1 min 21 sec 

Total time                  ....      81.930 sec
Sum of individual times     ....      80.996 sec  ( 98.9%)

Fock matrix formation       ....      73.232 sec  ( 89.4%)
  XC integration            ....       5.330 sec  (  7.3% of F)
    Basis function eval.    ....       0.993 sec  ( 18.6% of XC)
    Density eval.           ....       1.770 sec  ( 33.2% of XC)
    XC-Functional eval.     ....       0.063 sec  (  1.2% of XC)
    XC-Potential eval.      ....       1.866 sec  ( 35.0% of XC)
Diagonalization             ....       2.753 sec  (  3.4%)
Density matrix formation    ....       0.106 sec  (  0.1%)
Population analysis         ....       0.147 sec  (  0.2%)
Initial guess               ....       2.070 sec  (  2.5%)
Orbital Transformation      ....       0.000 sec  (  0.0%)
Orbital Orthonormalization  ....       0.000 sec  (  0.0%)
DIIS solution               ....       1.569 sec  (  1.9%)
Grid generation             ....       1.120 sec  (  1.4%)


           ************************************************************
           *        Program running with 24 parallel MPI-processes    *
           *              working on a common directory               *
           ************************************************************

------------------------------------------------------------------------------
                                ORCA  MP2 
------------------------------------------------------------------------------

Freezing NCore=48 chemical core electrons

-------------
RI-MP2 ENERGY
-------------
Dimension of the basis                    ...  825
Memory devoted to MP2                     ... 5000 MB   
Data format for buffers                   ... DOUBLE
Compression type for matrix containers    ... UNCOMPRESSED
Scaling for aa/bb pairs                   ...   4.000e-01
Scaling for ab pairs                      ...   4.700e-01
Overall scaling of the MP2 energy         ...   1.000e+00
Calculating two index integrals           ... done (    0.032 sec)
Cholesky decomposition of V**-1           ... done (    0.399 sec)

-----------------
RI-TRANSFORMATION (AUX index driven)
-----------------

Dimension of the orbital-basis         ... 825
Dimension of the aux-basis             ... 2060
Transformation of internal/external MOs...   24-  79 to   80- 824
Number Format for Storage              ... Double (8 Byte)
Integral mode                          ... Direct

First Phase: integral generation and transformation of MO indices
  Aux angular momentum 0               ... done (    0.165 sec)
  Aux angular momentum 1               ... done (    0.313 sec)
  Aux angular momentum 2               ... done (    0.397 sec)
  Aux angular momentum 3               ... done (    0.446 sec)
  Aux angular momentum 4               ... done (    0.130 sec)
  Aux angular momentum 5               ... done (    0.167 sec)
  Aux angular momentum 6               ... done (    0.211 sec)
Closing buffer VIA ( 0.64 GB; CompressionRatio= 1.00)
  Phase 1 completed in     1.943 sec
Second Phase: sorting and transformation of aux index

IA-Transformation
Memory available                       ... 4915 MB 
Max. # MO pairs treated in a batch     ... 3    
# of internal orbitals                 ... 56
# batches for internal orbitals        ... 1
Closing buffer IAV ( 0.03 GB; CompressionRatio= 1.00)
(ia|v) transformation done in     0.532 sec

  Phase 2 completed in     1.215 sec
RI-Integral transformation completed in     3.178 sec
Opening buffers                              ... done

Starting loop over batches of integrals:

Operator 0  - window                       ... ( 24- 79)x( 80-824)
Operator 0  - Memory available             ...  5000 MB
Operator 0  - Memory needed per MO         ...  11.7 MB
Operator 0  - Number of orbitals per batch ... 3
Operator 0  - Number of batches            ... 1

OPERATOR  0   PASS   0:  MOs    24 ...   26 +   27 ...   29 +   30 ...   32 +   33 ...   35
                            +   36 ...   38 +   39 ...   41 +   42 ...   44 +   45 ...   47
                            +   48 ...   50 +   51 ...   53 +   54 ...   56 +   57 ...   59
                            +   60 ...   62 +   63 ...   65 +   66 ...   68 +   69 ...   71
                            +   72 ...   74 +   75 ...   77 +   78 ...   79
  Reading integrals       ... ok
  Internal MO  26
Time spent in pair loops =     0.358 sec
Deleting buffer (Ka|jb)[aa] ...done

-----------------------------------------------
 RI-MP2 CORRELATION ENERGY:     -1.885244763 Eh
-----------------------------------------------


-------
TIMINGS
-------

Total time                :   10.913 sec
Integral trafo            :    3.194 sec ( 29.3%)
I/O of integrals          :    0.041 sec (  0.4%)
K(i,j) Operators          :    0.247 sec (  2.3%)
T(i,j) pair energies      :    0.040 sec (  0.4%)
V-calculation             :    0.032 sec (  0.3%)
V**(-1/2)                 :    0.399 sec (  3.7%)
Gamma(ia|P)               :    0.000 sec (  0.0%)
Gamma-Trafo               :    0.000 sec (  0.0%)
D(virtual)                :    0.000 sec (  0.0%)
D(internal)               :    0.000 sec (  0.0%)
W(virtual)                :    0.000 sec (  0.0%)
W(internal)               :    0.000 sec (  0.0%)
L(virtual)                :    0.000 sec (  0.0%)
L(internal)               :    0.000 sec (  0.0%)
G(D)                      :    0.000 sec (  0.0%)
G(Z)                      :    0.000 sec (  0.0%)
Z-Vector Solution         :    0.000 sec (  0.0%)
Z-Vector Solution         :    0.000 sec (  0.0%)
3-Index Derivative 
+ Separable RIJ part      :    0.000 sec (  0.0%)
2-Index Derivative 
+ Separable RIJ part      :    0.000 sec (  0.0%)
Separable Gradient (X)    :    0.000 sec (  0.0%)


---------------------------------------
MP2 TOTAL ENERGY:    -3450.327790285 Eh
---------------------------------------


-------------------------------------------------------------------------------
                          DFT DISPERSION CORRECTION                            
                                                                               
                              DFTD3 V3.1  Rev 1                                
                          USING Becke-Johnson damping                          
-------------------------------------------------------------------------------
The DSD-BLYP/2013 functional is recognized
Active option DFTDOPT                   ...         4   

molecular C6(AA) [au] = 12293.640027 


            DFT-D V3
 parameters
 s6 scaling factor         :     0.5700 
 a1 scaling factor         :     0.0000 
 s8 scaling factor         :     0.0000 
 a2 scaling factor         :     5.4000 
 ad hoc parameters k1-k3   :    16.0000     1.3333    -4.0000 

 Edisp/kcal,au: -24.431672173387  -0.038934343746 
 E6   /kcal   : -24.431672173 
 E8   /kcal   :  -0.000000000 
 % E8         :   0.000000000 

-------------------------   ----------------
Dispersion correction           -0.038934344
-------------------------   ----------------


-------------------------   --------------------
FINAL SINGLE POINT ENERGY     -3450.366724628810
-------------------------   --------------------


                            ***************************************
                            *     ORCA property calculations      *
                            ***************************************


  WARNING: The energy has been calculated at the MP2 level but the densities
           used in the property calculations are still SCF densities
           MP2 response densities have not been calculated 
           use %mp2 Density relaxed end
           or  %mp2 Density unrelaxed end

                                    ---------------------
                                    Active property flags
                                    ---------------------
   (+) Dipole Moment


------------------------------------------------------------------------------
                       ORCA ELECTRIC PROPERTIES CALCULATION
------------------------------------------------------------------------------

Dipole Moment Calculation                       ... on
Quadrupole Moment Calculation                   ... off
Polarizability Calculation                      ... off
GBWName                                         ... TMB20_C1.gbw
Electron density file                           ... TMB20_C1.scfp
The origin for moment calculation is the CENTER OF MASS  = (-0.248651, -0.071111  0.004478)

-------------
DIPOLE MOMENT
-------------
                                X             Y             Z
Electronic contribution:   -158.39736      14.48420      -4.02461
Nuclear contribution   :    161.40681     -12.70221       3.21078
                        -----------------------------------------
Total Dipole Moment    :      3.00945       1.78199      -0.81383
                        -----------------------------------------
Magnitude (a.u.)       :      3.59091
Magnitude (Debye)      :      9.12737



--------------------
Rotational spectrum 
--------------------
 
Rotational constants in cm-1:     0.015589     0.006706     0.005713 
Rotational constants in MHz :   467.340547   201.035293   171.274519 

 Dipole components along the rotational axes: 
x,y,z [a.u.] :     3.009407     1.769179    -0.841489 
x,y,z [Debye]:     7.649304     4.496896    -2.138895 

 

Timings for individual modules:

Sum of individual times         ...       97.784 sec (=   1.630 min)
GTO integral calculation        ...        3.879 sec (=   0.065 min)   4.0 %
SCF iterations                  ...       82.318 sec (=   1.372 min)  84.2 %
MP2 module                      ...       11.587 sec (=   0.193 min)  11.8 %
                             ****ORCA TERMINATED NORMALLY****
TOTAL RUN TIME: 0 days 0 hours 1 minutes 38 seconds 413 msec
