
                                 *****************
                                 * O   R   C   A *
                                 *****************

           --- An Ab Initio, DFT and Semiempirical electronic structure package ---

                  #######################################################
                  #                        -***-                        #
                  #          Department of theory and spectroscopy      #
                  #               Directorship: Frank Neese             #
                  #        Max Planck Institute fuer Kohlenforschung    #
                  #                Kaiser Wilhelm Platz 1               #
                  #                 D-45470 Muelheim/Ruhr               #
                  #                      Germany                        #
                  #                                                     #
                  #                  All rights reserved                #
                  #                        -***-                        #
                  #######################################################


                         Program Version 4.2.0 -  RELEASE  -


 With contributions from (in alphabetic order):
   Daniel Aravena         : Magnetic Suceptibility
   Michael Atanasov       : Ab Initio Ligand Field Theory (pilot matlab implementation)
   Alexander A. Auer      : GIAO ZORA, VPT2
   Ute Becker             : Parallelization
   Giovanni Bistoni       : ED, misc. LED, open-shell LED, HFLED
   Martin Brehm           : Molecular dynamics
   Dmytro Bykov           : SCF Hessian
   Vijay G. Chilkuri      : MRCI spin determinant printing, contributions to CSF-ICE
   Dipayan Datta          : RHF DLPNO-CCSD density
   Achintya Kumar Dutta   : EOM-CC, STEOM-CC
   Dmitry Ganyushin       : Spin-Orbit,Spin-Spin,Magnetic field MRCI
   Miquel Garcia          : C-PCM Hessian, Gaussian charge scheme
   Yang Guo               : DLPNO-NEVPT2, CIM, IAO-localization
   Andreas Hansen         : Spin unrestricted coupled pair/coupled cluster methods
   Benjamin Helmich-Paris : CASSCF linear response (MC-RPA)
   Lee Huntington         : MR-EOM, pCC
   Robert Izsak           : Overlap fitted RIJCOSX, COSX-SCS-MP3, EOM
   Christian Kollmar      : KDIIS, OOCD, Brueckner-CCSD(T), CCSD density
   Simone Kossmann        : Meta GGA functionals, TD-DFT gradient, OOMP2, MP2 Hessian
   Martin Krupicka        : AUTO-CI
   Lucas Lang             : DCDCAS
   Dagmar Lenk            : GEPOL surface, SMD
   Dimitrios Liakos       : Extrapolation schemes; Compound Job, initial MDCI parallelization
   Dimitrios Manganas     : Further ROCIS development; embedding schemes
   Dimitrios Pantazis     : SARC Basis sets
   Taras Petrenko         : DFT Hessian,TD-DFT gradient, ASA, ECA, R-Raman, ABS, FL, XAS/XES, NRVS
   Peter Pinski           : DLPNO-MP2, DLPNO-MP2 Gradient
   Christoph Reimann      : Effective Core Potentials
   Marius Retegan         : Local ZFS, SOC
   Christoph Riplinger    : Optimizer, TS searches, QM/MM, DLPNO-CCSD(T), (RO)-DLPNO pert. Triples
   Tobias Risthaus        : Range-separated hybrids, TD-DFT gradient, RPA, STAB
   Michael Roemelt        : Original ROCIS implementation
   Masaaki Saitow         : Open-shell DLPNO-CCSD energy and density
   Barbara Sandhoefer     : DKH picture change effects
   Avijit Sen             : IP-ROCIS
   Kantharuban Sivalingam : CASSCF convergence, NEVPT2, FIC-MRCI
   Bernardo de Souza      : ESD, SOC TD-DFT
   Georgi Stoychev        : AutoAux, RI-MP2 NMR
   Willem Van den Heuvel  : Paramagnetic NMR
   Boris Wezisla          : Elementary symmetry handling
   Frank Wennmohs         : Technical directorship


 We gratefully acknowledge several colleagues who have allowed us to
 interface, adapt or use parts of their codes:
   Stefan Grimme, W. Hujo, H. Kruse,             : VdW corrections, initial TS optimization,
                  C. Bannwarth                     DFT functionals, gCP, sTDA/sTD-DF
   Ed Valeev, F. Pavosevic, A. Kumar             : LibInt (2-el integral package), F12 methods
   Garnet Chan, S. Sharma, J. Yang, R. Olivares  : DMRG
   Ulf Ekstrom                                   : XCFun DFT Library
   Mihaly Kallay                                 : mrcc  (arbitrary order and MRCC methods)
   Andreas Klamt, Michael Diedenhofen            : otool_cosmo (COSMO solvation model)
   Jiri Pittner, Ondrej Demel                    : Mk-CCSD
   Frank Weinhold                                : gennbo (NPA and NBO analysis)
   Christopher J. Cramer and Donald G. Truhlar   : smd solvation model
   Lars Goerigk                                  : TD-DFT with DH, B97 family of functionals
   V. Asgeirsson, H. Jonsson                     : NEB implementation
   FAccTs GmbH                                   : IRC, NEB, NEB-TS, Multilevel, MM, QM/MM, CI optimization
   S Lehtola, MJT Oliveira, MAL Marques          : LibXC Library


 Your calculation uses the libint2 library for the computation of 2-el integrals
 For citations please refer to: http://libint.valeyev.net

 Your ORCA version has been built with support for libXC version: 4.2.3
 For citations please refer to: https://tddft.org/programs/libxc/

 This ORCA versions uses:
   CBLAS   interface :  Fast vector & matrix operations
   LAPACKE interface :  Fast linear algebra routines
   SCALAPACK package :  Parallel linear algebra routines


Your calculation utilizes the atom-pairwise dispersion correction
with the Becke-Johnson damping scheme (D3BJ)
Cite in your paper:
S.Grimme, S.Ehrlich, L.Goerigk, J Comput Chem, (2011), 32, 1456–1465 
S.Grimme, J.Antony, S.Ehrlich and H.Krieg, J.Chem.Phys., 132, (2010), 154104 
   

----- Orbital basis set information -----
Your calculation utilizes the basis: def2-TZVPPD
   F. Weigend and R. Ahlrichs, Phys. Chem. Chem. Phys. 7, 3297 (2005).
   D. Rappoport and F. Furche, J. Chem. Phys. 133 134105 (2010).

----- AuxC basis set information -----
Your calculation utilizes the auxiliary basis: def2-TZVPPD/C
   A. Hellweg, C. Hattig, S. Hofener and W. Klopper, Theor. Chem. Acc. 117, 587 (2007).

----- AuxJK basis set information -----
Your calculation utilizes the auxiliary basis: def2/JK
   H-Ba, Hf-Rn: F. Weigend, J. Comput. Chem. 29, 167 (2008).

cite the ECPs for Au [Def2-ECP] as follows:
Ce-Yb(ecp-28): M. Dolg, H. Stoll, H.Preuss, J. Chem. Phys., 1989, 90, 1730-1734.
Y-Cd(ecp-28), Hf-Hg(ecp-46): D. Andrae,U. Haeussermann, M. Dolg, H. Stoll, H. Preuss, Theor. Chim. Acta, 1990, 77, 123-141.
In-Sb(ecp-28), Tl-Bi(ecp-46): B. Metz, H. Stoll, M. Dolg, J. Chem. Phys., 2000, 113, 2563-2569.
Te-Xe(ecp-28), Po-Rn(ecp-46): K. A. Peterson, D. Figgen, E. Goll, H. Stoll, M. Dolg, J. Chem. Phys., 2003, 119, 11113-11123.
Rb(ecp-28), Cs(ecp-46): T. Leininger, A. Nicklass, W. Kuechle, H. Stoll, M. Dolg, A. Bergner, Chem. Phys. Lett., 1996, 255, 274-280.
Sr(ecp-28), Ba(ecp-46): M. Kaupp, P. V. Schleyer, H. Stoll and H. Preuss, J. Chem. Phys., 1991, 94, 1360-1366.
La(ecp-46): M. Dolg, H. Stoll, A. Savin, H. Preuss, Theor. Chim. Acta, 1989, 75, 173-194.
Lu(ecp-28): X. Cao, M. Dolg, J. Chem. Phys., 2001, 115, 7348-7355.

ECP parameters for Au [Def2-ECP] have been obtained from:
TURBOMOLE (7.0.2)

================================================================================
                                        WARNINGS
                       Please study these warnings very carefully!
================================================================================


WARNING: No MP2 level density has been requested!
         To caclulate MP2 level properties use
         %mp2 Density relaxed end
         or
         %mp2 Density unrelaxed end
         Otherwise for double-hybrid DFT only the energy is correct!

WARNING: There are different parametrizations of Gershom Martin's DSD-DFs
         for use with and without D3(BJ)!
         You are using the D3(BJ) parametrized version,
         consistent with the 2013 article (S. Kozuch and J. M. L. Martin, JCC 2013, 34, 2327)

WARNING: The frozen-core approximation is turned on by default for 
         the MP2 part of double-hybrid DFT.

INFO   : the flag for use of LIBINT has been found!

================================================================================
                                       INPUT FILE
================================================================================
NAME = TMB28_C1.in
|  1> #
|  2> # TMB28_C1 ri-DSD-BLYP/2013-D3BJ/Def2-TZVPPD
|  3> #
|  4> ! rijk ri-dsd-blyp/2013 d3bj def2-tzvppd def2/jk def2-tzvppd/c grid4 nofinalgrid
|  5> 
|  6> *xyz 0 1
|  7> C       -0.405710    1.676464   -0.132905 
|  8> C       -0.911585    0.669613    0.356254 
|  9> C       -0.058307    2.983711   -0.650101 
| 10> H       -0.949750    3.612259   -0.580916 
| 11> H        0.745323    3.420879   -0.056180 
| 12> H        0.255303    2.923577   -1.693087 
| 13> C       -1.922079   -0.256189    0.903797 
| 14> O       -2.980737   -0.448274   -0.040247 
| 15> C       -3.644467    0.620195   -0.535863 
| 16> O       -3.419291    1.755394   -0.218963 
| 17> C       -1.315036   -1.659397    1.187254 
| 18> O       -0.292489   -1.714090    1.813533 
| 19> C       -2.070337   -2.858032    0.718520 
| 20> H       -2.050973   -2.878590   -0.373534 
| 21> H       -1.593281   -3.749478    1.117849 
| 22> H       -3.118661   -2.810283    1.017394 
| 23> C       -4.664667    0.177679   -1.534856 
| 24> H       -5.268795    1.028888   -1.835351 
| 25> H       -4.153929   -0.239550   -2.404894 
| 26> H       -5.293840   -0.608504   -1.117133 
| 27> C       -2.442836    0.266886    2.244835 
| 28> H       -3.205737   -0.415249    2.624458 
| 29> H       -1.614369    0.303689    2.950542 
| 30> H       -2.869838    1.259004    2.124200 
| 31> Au       1.189623    0.069390   -0.174295 
| 32> Cl       0.186320   -1.092349   -1.885264 
| 33> Cl       3.146088   -1.001725   -0.550079 
| 34> Cl       2.155158    1.282412    1.507095 
| 35> *
| 36> 
| 37> %maxcore 5000
| 38> 
| 39> %pal
| 40> nprocs = 24
| 41> end
| 42> 
| 43> 
| 44>                          ****END OF INPUT****
================================================================================

                       ****************************
                       * Single Point Calculation *
                       ****************************

---------------------------------
CARTESIAN COORDINATES (ANGSTROEM)
---------------------------------
  C     -0.405710    1.676464   -0.132905
  C     -0.911585    0.669613    0.356254
  C     -0.058307    2.983711   -0.650101
  H     -0.949750    3.612259   -0.580916
  H      0.745323    3.420879   -0.056180
  H      0.255303    2.923577   -1.693087
  C     -1.922079   -0.256189    0.903797
  O     -2.980737   -0.448274   -0.040247
  C     -3.644467    0.620195   -0.535863
  O     -3.419291    1.755394   -0.218963
  C     -1.315036   -1.659397    1.187254
  O     -0.292489   -1.714090    1.813533
  C     -2.070337   -2.858032    0.718520
  H     -2.050973   -2.878590   -0.373534
  H     -1.593281   -3.749478    1.117849
  H     -3.118661   -2.810283    1.017394
  C     -4.664667    0.177679   -1.534856
  H     -5.268795    1.028888   -1.835351
  H     -4.153929   -0.239550   -2.404894
  H     -5.293840   -0.608504   -1.117133
  C     -2.442836    0.266886    2.244835
  H     -3.205737   -0.415249    2.624458
  H     -1.614369    0.303689    2.950542
  H     -2.869838    1.259004    2.124200
  Au     1.189623    0.069390   -0.174295
  Cl     0.186320   -1.092349   -1.885264
  Cl     3.146088   -1.001725   -0.550079
  Cl     2.155158    1.282412    1.507095

----------------------------
CARTESIAN COORDINATES (A.U.)
----------------------------
  NO LB      ZA    FRAG     MASS         X           Y           Z
   0 C     6.0000    0    12.011   -0.766681    3.168058   -0.251154
   1 C     6.0000    0    12.011   -1.722646    1.265385    0.673222
   2 C     6.0000    0    12.011   -0.110184    5.638397   -1.228513
   3 H     1.0000    0     1.008   -1.794767    6.826180   -1.097772
   4 H     1.0000    0     1.008    1.408456    6.464524   -0.106165
   5 H     1.0000    0     1.008    0.482453    5.524760   -3.199471
   6 C     6.0000    0    12.011   -3.632203   -0.484127    1.707929
   7 O     8.0000    0    15.999   -5.632777   -0.847115   -0.076056
   8 C     6.0000    0    12.011   -6.887045    1.171999   -1.012634
   9 O     8.0000    0    15.999   -6.461524    3.317214   -0.413780
  10 C     6.0000    0    12.011   -2.485058   -3.135806    2.243585
  11 O     8.0000    0    15.999   -0.552724   -3.239161    3.427081
  12 C     6.0000    0    12.011   -3.912370   -5.400898    1.357806
  13 H     1.0000    0     1.008   -3.875777   -5.439747   -0.705877
  14 H     1.0000    0     1.008   -3.010865   -7.085487    2.112428
  15 H     1.0000    0     1.008   -5.893415   -5.310665    1.922596
  16 C     6.0000    0    12.011   -8.814943    0.335765   -2.900457
  17 H     1.0000    0     1.008   -9.956580    1.944317   -3.468311
  18 H     1.0000    0     1.008   -7.849788   -0.452684   -4.544591
  19 H     1.0000    0     1.008  -10.003908   -1.149906   -2.111075
  20 C     6.0000    0    12.011   -4.616291    0.504341    4.242123
  21 H     1.0000    0     1.008   -6.057965   -0.784707    4.959507
  22 H     1.0000    0     1.008   -3.050715    0.573889    5.575716
  23 H     1.0000    0     1.008   -5.423208    2.379173    4.014156
  24 Au   19.0000*   0   196.966    2.248062    0.131128   -0.329370
  25 Cl   17.0000    0    35.453    0.352094   -2.064240   -3.562633
  26 Cl   17.0000    0    35.453    5.945245   -1.892986   -1.039499
  27 Cl   17.0000    0    35.453    4.072658    2.423407    2.847997
* core charge reduced due to ECP

--------------------------------
INTERNAL COORDINATES (ANGSTROEM)
--------------------------------
 C      0   0   0     0.000000000000     0.00000000     0.00000000
 C      1   0   0     1.228387145450     0.00000000     0.00000000
 C      1   2   0     1.448128193854   168.79214473     0.00000000
 H      3   1   2     1.092945458281   107.50989515   355.76168110
 H      3   1   2     1.090724159155   110.12638787   115.15683959
 H      3   1   2     1.090773636577   111.14368651   236.46346863
 C      2   1   3     1.475808525551   160.71730875    11.73944301
 O      7   2   1     1.431388305850   110.23666799    55.71230314
 C      8   7   2     1.351961070563   119.92204441   305.15015094
 O      9   8   7     1.199919418368   123.96850747   358.81169031
 C      7   2   1     1.554941081187   111.49568140   174.06677513
 O     11   7   2     1.200341233691   117.95651424    49.57770823
 C     11   7   2     1.492285839436   118.03352224   226.85059581
 H     13  11   7     1.092419120473   108.67161408    68.32903860
 H     13  11   7     1.087070397119   108.73407306   188.19966135
 H     13  11   7     1.091141074221   111.41312702   310.73358940
 C      9   8   7     1.494863025265   110.24813349   177.90249355
 H     17   9   8     1.086197333402   109.41925892   173.27338190
 H     17   9   8     1.091741482462   109.05232332   293.42365153
 H     17   9   8     1.090153603006   110.56645034    51.34721503
 C      7   2   1     1.530744337281   110.09668529   291.85636325
 H     21   7   2     1.091530904810   109.20285917   178.63424783
 H     21   7   2     1.088914322041   108.69227279   297.57632816
 H     21   7   2     1.086821805612   110.38676078    58.15058517
 Au     2   1   3     2.248738524238    74.93138353   182.22294640
 Cl    25   2   1     2.298623356031    84.41462757   253.54034085
 Cl    25   2   1     2.261914289735   166.85712050   184.30645497
 Cl    25   2   1     2.287083850848    94.55729635    72.14220312

---------------------------
INTERNAL COORDINATES (A.U.)
---------------------------
 C      0   0   0     0.000000000000     0.00000000     0.00000000
 C      1   0   0     2.321315291330     0.00000000     0.00000000
 C      1   2   0     2.736565693194   168.79214473     0.00000000
 H      3   1   2     2.065367595465   107.50989515   355.76168110
 H      3   1   2     2.061169948455   110.12638787   115.15683959
 H      3   1   2     2.061263447232   111.14368651   236.46346863
 C      2   1   3     2.788873939398   160.71730875    11.73944301
 O      7   2   1     2.704931889355   110.23666799    55.71230314
 C      8   7   2     2.554836167086   119.92204441   305.15015094
 O      9   8   7     2.267519083490   123.96850747   358.81169031
 C      7   2   1     2.938412797826   111.49568140   174.06677513
 O     11   7   2     2.268316198929   117.95651424    49.57770823
 C     11   7   2     2.820011550063   118.03352224   226.85059581
 H     13  11   7     2.064372961154   108.67161408    68.32903860
 H     13  11   7     2.054265338848   108.73407306   188.19966135
 H     13  11   7     2.061957803751   111.41312702   310.73358940
 C      9   8   7     2.824881725476   110.24813349   177.90249355
 H     17   9   8     2.052615487526   109.41925892   173.27338190
 H     17   9   8     2.063092410895   109.05232332   293.42365153
 H     17   9   8     2.060091753589   110.56645034    51.34721503
 C      7   2   1     2.892687578512   110.09668529   291.85636325
 H     21   7   2     2.062694476802   109.20285917   178.63424783
 H     21   7   2     2.057749851963   108.69227279   297.57632816
 H     21   7   2     2.053795568980   110.38676078    58.15058517
 Au     2   1   3     4.249499957609    74.93138353   182.22294640
 Cl    25   2   1     4.343768627933    84.41462757   253.54034085
 Cl    25   2   1     4.274398546002   166.85712050   184.30645497
 Cl    25   2   1     4.321962123416    94.55729635    72.14220312

---------------------
BASIS SET INFORMATION
---------------------
There are 5 groups of distinct atoms

 Group   1 Type C   : 12s6p3d1f contracted to 6s3p3d1f pattern {621111/411/111/1}
 Group   2 Type H   : 5s3p1d contracted to 3s3p1d pattern {311/111/1}
 Group   3 Type O   : 12s7p3d1f contracted to 6s4p3d1f pattern {621111/4111/111/1}
 Group   4 Type Au  : 8s8p6d2f1g contracted to 6s5p3d2f1g pattern {311111/41111/411/11/1}
 Group   5 Type Cl  : 15s10p4d1f contracted to 6s6p4d1f pattern {732111/511111/1111/1}

Atom   0C    basis set group =>   1
Atom   1C    basis set group =>   1
Atom   2C    basis set group =>   1
Atom   3H    basis set group =>   2
Atom   4H    basis set group =>   2
Atom   5H    basis set group =>   2
Atom   6C    basis set group =>   1
Atom   7O    basis set group =>   3
Atom   8C    basis set group =>   1
Atom   9O    basis set group =>   3
Atom  10C    basis set group =>   1
Atom  11O    basis set group =>   3
Atom  12C    basis set group =>   1
Atom  13H    basis set group =>   2
Atom  14H    basis set group =>   2
Atom  15H    basis set group =>   2
Atom  16C    basis set group =>   1
Atom  17H    basis set group =>   2
Atom  18H    basis set group =>   2
Atom  19H    basis set group =>   2
Atom  20C    basis set group =>   1
Atom  21H    basis set group =>   2
Atom  22H    basis set group =>   2
Atom  23H    basis set group =>   2
Atom  24Au   basis set group =>   4
Atom  25Cl   basis set group =>   5
Atom  26Cl   basis set group =>   5
Atom  27Cl   basis set group =>   5
---------------------------------
AUXILIARY/C BASIS SET INFORMATION
---------------------------------
There are 5 groups of distinct atoms

 Group   1 Type C   : 9s7p6d4f1g contracted to 9s7p5d4f1g pattern {111111111/1111111/21111/1111/1}
 Group   2 Type H   : 5s4p3d1f contracted to 5s4p3d1f pattern {11111/1111/111/1}
 Group   3 Type O   : 9s7p6d4f1g contracted to 9s7p5d4f1g pattern {111111111/1111111/21111/1111/1}
 Group   4 Type Au  : 9s9p8d5f4g3h1i contracted to 9s9p8d5f4g3h1i pattern {111111111/111111111/11111111/11111/1111/111/1}
 Group   5 Type Cl  : 12s9p8d6f2g contracted to 12s9p8d6f2g pattern {111111111111/111111111/11111111/111111/11}

Atom   0C    basis set group =>   1
Atom   1C    basis set group =>   1
Atom   2C    basis set group =>   1
Atom   3H    basis set group =>   2
Atom   4H    basis set group =>   2
Atom   5H    basis set group =>   2
Atom   6C    basis set group =>   1
Atom   7O    basis set group =>   3
Atom   8C    basis set group =>   1
Atom   9O    basis set group =>   3
Atom  10C    basis set group =>   1
Atom  11O    basis set group =>   3
Atom  12C    basis set group =>   1
Atom  13H    basis set group =>   2
Atom  14H    basis set group =>   2
Atom  15H    basis set group =>   2
Atom  16C    basis set group =>   1
Atom  17H    basis set group =>   2
Atom  18H    basis set group =>   2
Atom  19H    basis set group =>   2
Atom  20C    basis set group =>   1
Atom  21H    basis set group =>   2
Atom  22H    basis set group =>   2
Atom  23H    basis set group =>   2
Atom  24Au   basis set group =>   4
Atom  25Cl   basis set group =>   5
Atom  26Cl   basis set group =>   5
Atom  27Cl   basis set group =>   5
----------------------------------
AUXILIARY/JK BASIS SET INFORMATION
----------------------------------
There are 5 groups of distinct atoms

 Group   1 Type C   : 14s10p6d2f1g contracted to 10s8p5d1f1g pattern {5111111111/31111111/21111/2/1}
 Group   2 Type H   : 4s2p2d contracted to 2s2p2d pattern {31/11/11}
 Group   3 Type O   : 14s10p6d2f1g contracted to 10s8p4d2f1g pattern {5111111111/31111111/3111/11/1}
 Group   4 Type Au  : 13s12p11d9f5g3h2i contracted to 13s11p10d8f4g3h2i pattern {1111111111111/21111111111/2111111111/21111111/2111/111/11}
 Group   5 Type Cl  : 16s12p10d4f1g contracted to 13s11p9d4f1g pattern {4111111111111/21111111111/211111111/1111/1}

Atom   0C    basis set group =>   1
Atom   1C    basis set group =>   1
Atom   2C    basis set group =>   1
Atom   3H    basis set group =>   2
Atom   4H    basis set group =>   2
Atom   5H    basis set group =>   2
Atom   6C    basis set group =>   1
Atom   7O    basis set group =>   3
Atom   8C    basis set group =>   1
Atom   9O    basis set group =>   3
Atom  10C    basis set group =>   1
Atom  11O    basis set group =>   3
Atom  12C    basis set group =>   1
Atom  13H    basis set group =>   2
Atom  14H    basis set group =>   2
Atom  15H    basis set group =>   2
Atom  16C    basis set group =>   1
Atom  17H    basis set group =>   2
Atom  18H    basis set group =>   2
Atom  19H    basis set group =>   2
Atom  20C    basis set group =>   1
Atom  21H    basis set group =>   2
Atom  22H    basis set group =>   2
Atom  23H    basis set group =>   2
Atom  24Au   basis set group =>   4
Atom  25Cl   basis set group =>   5
Atom  26Cl   basis set group =>   5
Atom  27Cl   basis set group =>   5
-------------------------
ECP PARAMETER INFORMATION
-------------------------

 Group 1, Type Au ECP Def2-ECP (replacing 60 core electrons, lmax=3)

Atom  24Au   ECP group =>   1



           ************************************************************
           *        Program running with 24 parallel MPI-processes    *
           *              working on a common directory               *
           ************************************************************
------------------------------------------------------------------------------
                           ORCA GTO INTEGRAL CALCULATION
                           -- RI-GTO INTEGRALS CHOSEN --
------------------------------------------------------------------------------

                         BASIS SET STATISTICS AND STARTUP INFO

Gaussian basis set:
 # of primitive gaussian shells          ...  490
 # of primitive gaussian functions       ... 1162
 # of contracted shells                  ...  311
 # of contracted basis functions         ...  869
 Highest angular momentum                ...    4
 Maximum contraction depth               ...    7
Auxiliary gaussian basis set:
 # of primitive gaussian shells          ...  676
 # of primitive gaussian functions       ... 2092
 # of contracted shells                  ...  537
 # of contracted aux-basis functions     ... 1753
 Highest angular momentum                ...    6
 Maximum contraction depth               ...    5
Ratio of auxiliary to basis functions    ...  2.02
Integral package used                  ... LIBINT
 One Electron integrals                  
   ECP integrals                         ... done
 Ordering auxiliary basis shells         ... done
 Integral threshhold             Thresh  ...  1.000e-10
 Primitive cut-off               TCut    ...  1.000e-11
 Pre-screening matrix                    ... done
 Shell pair data                         ... 
 Ordering of the shell pairs             ... done (   0.007 sec) 40002 of 48516 pairs
 Determination of significant pairs      ... done (   0.000 sec)
 Creation of shell pair data             ... done (   0.004 sec)
 Storage of shell pair data              ... done (   0.018 sec)
 Shell pair data done in (   0.029 sec)
 Computing two index integrals           ... done
 Cholesky decomposition of the V-matrix  ... done


Timings:
 Total evaluation time                   ...   3.608 sec (  0.060 min)
 One electron matrix time                ...   2.841 sec (  0.047 min) = 78.7%
 Schwartz matrix evaluation time         ...   0.436 sec (  0.007 min) = 12.1%
 Two index repulsion integral time       ...   0.139 sec (  0.002 min) =  3.8%
 Cholesky decomposition of V             ...   0.132 sec (  0.002 min) =  3.6%
 Three index repulsion integral time     ...   0.000 sec (  0.000 min) =  0.0%



           ************************************************************
           *        Program running with 24 parallel MPI-processes    *
           *              working on a common directory               *
           ************************************************************
-------------------------------------------------------------------------------
                                 ORCA SCF
-------------------------------------------------------------------------------

------------
SCF SETTINGS
------------
Hamiltonian:
 Density Functional     Method          .... DFT(GTOs)
 Exchange Functional    Exchange        .... B88
   X-Alpha parameter    XAlpha          ....  0.666667
   Becke's b parameter  XBeta           ....  0.004200
 Correlation Functional Correlation     .... LYP
 LDA part of GGA corr.  LDAOpt          .... VWN-5
 Gradients option       PostSCFGGA      .... off
 Hybrid DFT is turned on
   Fraction HF Exchange ScalHFX         ....  0.710000
   Scaling of DF-GGA-X  ScalDFX         ....  0.290000
   Scaling of DF-GGA-C  ScalDFC         ....  0.540000
   Scaling of DF-LDA-C  ScalLDAC        ....  0.540000
   Perturbative correction              ....  1.000000
   Density functional embedding theory  .... OFF
 RI-approximation to the Coulomb term is turned on
   Number of auxiliary basis functions  .... 1753
   RI-JK (J+K treated both via RI)      .... on


General Settings:
 Integral files         IntName         .... TMB28_C1
 Hartree-Fock type      HFTyp           .... RHF
 Total Charge           Charge          ....    0
 Multiplicity           Mult            ....    1
 Number of Electrons    NEL             ....  160
 Basis Dimension        Dim             ....  869
 Nuclear Repulsion      ENuc            ....   1829.0504274765 Eh

Convergence Acceleration:
 DIIS                   CNVDIIS         .... on
   Start iteration      DIISMaxIt       ....    12
   Startup error        DIISStart       ....  0.200000
   # of expansion vecs  DIISMaxEq       ....     5
   Bias factor          DIISBfac        ....   1.050
   Max. coefficient     DIISMaxC        ....  10.000
 Newton-Raphson         CNVNR           .... off
 SOSCF                  CNVSOSCF        .... off
 Level Shifting         CNVShift        .... on
   Level shift para.    LevelShift      ....    0.2500
   Turn off err/grad.   ShiftErr        ....    0.0010
 Zerner damping         CNVZerner       .... off
 Static damping         CNVDamp         .... on
   Fraction old density DampFac         ....    0.7000
   Max. Damping (<1)    DampMax         ....    0.9800
   Min. Damping (>=0)   DampMin         ....    0.0000
   Turn off err/grad.   DampErr         ....    0.1000
 Fernandez-Rico         CNVRico         .... off

SCF Procedure:
 Maximum # iterations   MaxIter         ....   125
 SCF integral mode      SCFMode         .... Direct
   Integral package                     .... LIBINT
 Reset frequency        DirectResetFreq ....    20
 Integral Threshold     Thresh          ....  1.000e-10 Eh
 Primitive CutOff       TCut            ....  1.000e-11 Eh

Convergence Tolerance:
 Convergence Check Mode ConvCheckMode   .... Total+1el-Energy
 Convergence forced     ConvForced      .... 0
 Energy Change          TolE            ....  1.000e-06 Eh
 1-El. energy change                    ....  1.000e-03 Eh
 DIIS Error             TolErr          ....  1.000e-06


Diagonalization of the overlap matrix:
Smallest eigenvalue                        ... 1.147e-07
Time for diagonalization                   ...    0.150 sec
Threshold for overlap eigenvalues          ... 1.000e-08
Number of eigenvalues below threshold      ... 0
Time for construction of square roots      ...    0.094 sec
Total time needed                          ...    0.247 sec

-------------------
DFT GRID GENERATION
-------------------

General Integration Accuracy     IntAcc      ...  4.670
Radial Grid Type                 RadialGrid  ... Gauss-Chebyshev
Angular Grid (max. acc.)         AngularGrid ... Lebedev-302
Angular grid pruning method      GridPruning ... 3 (G Style)
Weight generation scheme         WeightScheme... Becke
Basis function cutoff            BFCut       ...    1.0000e-10
Integration weight cutoff        WCut        ...    1.0000e-14
Grids for H and He will be reduced by one unit

# of grid points (after initial pruning)     ... 147138 (   0.0 sec)
# of grid points (after weights+screening)   ... 130379 (   0.1 sec)
nearest neighbour list constructed           ...    0.0 sec
Grid point re-assignment to atoms done       ...    0.0 sec
Grid point division into batches done        ...    0.5 sec
Reduced shell lists constructed in    1.0 sec

Total number of grid points                  ...   130379
Total number of batches                      ...     2048
Average number of points per batch           ...       63
Average number of grid points per atom       ...     4656
Average number of shells per batch           ...   193.97 (62.37%)
Average number of basis functions per batch  ...   547.87 (63.05%)
Average number of large shells per batch     ...   152.14 (78.44%)
Average number of large basis fcns per batch ...   426.57 (77.86%)
Average number of aux-shells per batch       ...   193.97 (36.12%)
Average number of aux functions per batch    ...   547.87 (31.25%)
Maximum spatial batch extension              ...   2.30,  2.58,  2.08 au
Average spatial batch extension              ...   0.05,  0.05,  0.05 au

Time for grid setup =    1.217 sec

------------------------------
INITIAL GUESS: MODEL POTENTIAL
------------------------------
Loading Hartree-Fock densities                     ... done
  calling /sw/apps/orca/orca_4_2_0_linux_x86-64_openmpi314/orca TMB28_C1_atom79.inp > TMB28_C1_atom79.out in order to generate an atomic fitting density for atom 24 (Au with ECP) on-the-fly... 
    atom 24 (Au), assumed electronic state with S=2: 1s2 2s2 2p6 3s2 3p6 4s2 3d10 4p6 5s2 4d10 5p6 6s1 4f14 5d10           ... done
Calculating cut-offs                               ... done
Setting up the integral package                    ... done
Initializing the effective Hamiltonian             ... done
Starting the Coulomb interaction                   ... done (   0.1 sec)
Reading the grid                                   ... done
Mapping shells                                     ... done
Starting the XC term evaluation                    ... done (   0.4 sec)
  promolecular density results
     # of electrons  =    219.995265810
     EX              =   -524.401430861
     EC              =     -1.171441675
     EX+EC           =   -525.572872536
Transforming the Hamiltonian                       ... done (   0.1 sec)
Diagonalizing the Hamiltonian                      ... done (   0.1 sec)
Back transforming the eigenvectors                 ... done (   0.0 sec)
Now organizing SCF variables                       ... done
                      ------------------
                      INITIAL GUESS DONE (   3.0 sec)
                      ------------------
--------------
SCF ITERATIONS
--------------
ITER       Energy         Delta-E        Max-DP      RMS-DP      [F,P]     Damp
  0  -2088.5643579332   0.000000000000 5.01306573  0.01275417  0.5240829 0.7000
  1  -2088.3997519615   0.164605971624 3.34156268  0.00894040  0.3975424 0.7000
  2  -2088.5284784890  -0.128726527489 2.75444074  0.00711304  0.2839161 0.7000
                               ***Turning on DIIS***
  3  -2088.7634283261  -0.234949837037 2.41795658  0.00600564  0.1986173 0.7000
  4  -2088.9769410992  -0.213512773176 1.76123232  0.00436239  0.1363221 0.7000
  5  -2089.1059654758  -0.129024376581 4.12003963  0.01002658  0.0923424 0.0000
  6  -2089.1792078100  -0.073242334153 0.55739314  0.00105464  0.0228040 0.0000
  7  -2089.1812466813  -0.002038871345 0.46616983  0.00127458  0.0067823 0.0000
  8  -2089.1814820045  -0.000235323198 0.18803532  0.00048978  0.0033467 0.0000
  9  -2089.1815916298  -0.000109625305 0.46211549  0.00134510  0.0024697 0.0000
 10  -2089.1816312942  -0.000039664383 0.13411842  0.00052969  0.0007425 0.0000
 11  -2089.1816402574  -0.000008963164 0.99030155  0.00245995  0.0006079 0.0000
 12  -2089.1816419460  -0.000001688653 0.86331120  0.00244424  0.0002018 0.0000
 13  -2089.1816423806  -0.000000434636 1.08412253  0.00283015  0.0000913 0.0000
                 **** Energy Check signals convergence ****

               *****************************************************
               *                     SUCCESS                       *
               *           SCF CONVERGED AFTER  14 CYCLES          *
               *****************************************************


----------------
TOTAL SCF ENERGY
----------------

Total Energy       :        -2089.18164247 Eh          -56849.52267 eV

Components:
Nuclear Repulsion  :         1829.05042748 Eh           49770.99244 eV
Electronic Energy  :        -3918.23206995 Eh         -106620.51511 eV
One Electron Energy:        -6570.18395655 Eh         -178783.79465 eV
Two Electron Energy:         2651.95188660 Eh           72163.27954 eV

Virial components:
Potential Energy   :        -4086.22936395 Eh         -111191.95388 eV
Kinetic Energy     :         1997.04772148 Eh           54342.43122 eV
Virial Ratio       :            2.04613506


DFT components:
N(Alpha)           :       79.999913070360 electrons
N(Beta)            :       79.999913070360 electrons
N(Total)           :      159.999826140719 electrons
E(X)               :      -49.481015419218 Eh       
E(C)               :       -3.190658625685 Eh       
E(XC)              :      -52.671674044903 Eh       
DFET-embed. en.    :        0.000000000000 Eh       

---------------
SCF CONVERGENCE
---------------

  Last Energy change         ...   -8.8666e-08  Tolerance :   1.0000e-06
  Last MAX-Density change    ...    1.0032e-01  Tolerance :   1.0000e-05
  Last RMS-Density change    ...    2.5305e-04  Tolerance :   1.0000e-06
  Last DIIS Error            ...    3.7284e-05  Tolerance :   1.0000e-06

             **** THE GBW FILE WAS UPDATED (TMB28_C1.gbw) ****
             **** DENSITY FILE WAS UPDATED (TMB28_C1.scfp) ****
             **** ENERGY FILE WAS UPDATED (TMB28_C1.en.tmp) ****
             **** THE GBW FILE WAS UPDATED (TMB28_C1.gbw) ****
             **** DENSITY FILE WAS UPDATED (TMB28_C1.scfp) ****
----------------
ORBITAL ENERGIES
----------------

  NO   OCC          E(Eh)            E(eV) 
   0   2.0000    -103.623279     -2819.7328 
   1   2.0000    -103.619934     -2819.6417 
   2   2.0000    -103.616046     -2819.5360 
   3   2.0000     -20.134026      -547.8747 
   4   2.0000     -20.071353      -546.1693 
   5   2.0000     -20.069963      -546.1315 
   6   2.0000     -11.035219      -300.2836 
   7   2.0000     -11.001412      -299.3636 
   8   2.0000     -10.990161      -299.0575 
   9   2.0000     -10.956083      -298.1302 
  10   2.0000     -10.942816      -297.7692 
  11   2.0000     -10.910475      -296.8891 
  12   2.0000     -10.888403      -296.2885 
  13   2.0000     -10.885350      -296.2054 
  14   2.0000     -10.875805      -295.9457 
  15   2.0000     -10.138885      -275.8931 
  16   2.0000     -10.135363      -275.7972 
  17   2.0000     -10.131256      -275.6855 
  18   2.0000      -7.712170      -209.8588 
  19   2.0000      -7.709007      -209.7728 
  20   2.0000      -7.708798      -209.7670 
  21   2.0000      -7.708782      -209.7666 
  22   2.0000      -7.705344      -209.6731 
  23   2.0000      -7.705172      -209.6684 
  24   2.0000      -7.704854      -209.6597 
  25   2.0000      -7.701120      -209.5581 
  26   2.0000      -7.700823      -209.5500 
  27   2.0000      -4.661317      -126.8409 
  28   2.0000      -2.744612       -74.6847 
  29   2.0000      -2.742149       -74.6177 
  30   2.0000      -2.727162       -74.2098 
  31   2.0000      -1.382846       -37.6291 
  32   2.0000      -1.313716       -35.7480 
  33   2.0000      -1.285598       -34.9829 
  34   2.0000      -1.070100       -29.1189 
  35   2.0000      -1.019690       -27.7472 
  36   2.0000      -0.971316       -26.4309 
  37   2.0000      -0.952785       -25.9266 
  38   2.0000      -0.951638       -25.8954 
  39   2.0000      -0.949671       -25.8419 
  40   2.0000      -0.947739       -25.7893 
  41   2.0000      -0.929907       -25.3040 
  42   2.0000      -0.859514       -23.3886 
  43   2.0000      -0.772684       -21.0258 
  44   2.0000      -0.740366       -20.1464 
  45   2.0000      -0.669054       -18.2059 
  46   2.0000      -0.662194       -18.0192 
  47   2.0000      -0.646746       -17.5989 
  48   2.0000      -0.635955       -17.3052 
  49   2.0000      -0.615326       -16.7439 
  50   2.0000      -0.607043       -16.5185 
  51   2.0000      -0.604142       -16.4395 
  52   2.0000      -0.590832       -16.0774 
  53   2.0000      -0.586640       -15.9633 
  54   2.0000      -0.572620       -15.5818 
  55   2.0000      -0.565156       -15.3787 
  56   2.0000      -0.561388       -15.2761 
  57   2.0000      -0.555652       -15.1200 
  58   2.0000      -0.553058       -15.0495 
  59   2.0000      -0.548077       -14.9139 
  60   2.0000      -0.546449       -14.8696 
  61   2.0000      -0.543644       -14.7933 
  62   2.0000      -0.542317       -14.7572 
  63   2.0000      -0.519334       -14.1318 
  64   2.0000      -0.515968       -14.0402 
  65   2.0000      -0.503868       -13.7109 
  66   2.0000      -0.488294       -13.2872 
  67   2.0000      -0.455140       -12.3850 
  68   2.0000      -0.453302       -12.3350 
  69   2.0000      -0.437255       -11.8983 
  70   2.0000      -0.433887       -11.8067 
  71   2.0000      -0.424678       -11.5561 
  72   2.0000      -0.407411       -11.0862 
  73   2.0000      -0.395928       -10.7737 
  74   2.0000      -0.393827       -10.7166 
  75   2.0000      -0.377502       -10.2724 
  76   2.0000      -0.373377       -10.1601 
  77   2.0000      -0.372178       -10.1275 
  78   2.0000      -0.369571       -10.0565 
  79   2.0000      -0.358061        -9.7433 
  80   0.0000      -0.064960        -1.7676 
  81   0.0000       0.019709         0.5363 
  82   0.0000       0.027204         0.7402 
  83   0.0000       0.036520         0.9938 
  84   0.0000       0.040013         1.0888 
  85   0.0000       0.045742         1.2447 
  86   0.0000       0.047709         1.2982 
  87   0.0000       0.062425         1.6987 
  88   0.0000       0.064220         1.7475 
  89   0.0000       0.066948         1.8218 
  90   0.0000       0.070217         1.9107 
  91   0.0000       0.074026         2.0144 
  92   0.0000       0.076163         2.0725 
  93   0.0000       0.079669         2.1679 
  94   0.0000       0.087296         2.3754 
  95   0.0000       0.094583         2.5737 
  96   0.0000       0.096413         2.6235 
  97   0.0000       0.099053         2.6954 
  98   0.0000       0.103893         2.8271 
  99   0.0000       0.106446         2.8965 
 100   0.0000       0.112736         3.0677 
 101   0.0000       0.114732         3.1220 
 102   0.0000       0.116199         3.1619 
 103   0.0000       0.124249         3.3810 
 104   0.0000       0.128767         3.5039 
 105   0.0000       0.133906         3.6438 
 106   0.0000       0.142358         3.8738 
 107   0.0000       0.142785         3.8854 
 108   0.0000       0.146780         3.9941 
 109   0.0000       0.151410         4.1201 
 110   0.0000       0.155895         4.2421 
 111   0.0000       0.158654         4.3172 
 112   0.0000       0.159963         4.3528 
 113   0.0000       0.166592         4.5332 
 114   0.0000       0.169911         4.6235 
 115   0.0000       0.174080         4.7370 
 116   0.0000       0.178708         4.8629 
 117   0.0000       0.183882         5.0037 
 118   0.0000       0.187283         5.0962 
 119   0.0000       0.196855         5.3567 
 120   0.0000       0.201333         5.4786 
 121   0.0000       0.206109         5.6085 
 122   0.0000       0.207157         5.6370 
 123   0.0000       0.213960         5.8222 
 124   0.0000       0.219057         5.9608 
 125   0.0000       0.226987         6.1766 
 126   0.0000       0.228230         6.2105 
 127   0.0000       0.230729         6.2785 
 128   0.0000       0.236573         6.4375 
 129   0.0000       0.243614         6.6291 
 130   0.0000       0.248335         6.7575 
 131   0.0000       0.249749         6.7960 
 132   0.0000       0.250834         6.8255 
 133   0.0000       0.254972         6.9381 
 134   0.0000       0.262176         7.1342 
 135   0.0000       0.264481         7.1969 
 136   0.0000       0.265708         7.2303 
 137   0.0000       0.271105         7.3771 
 138   0.0000       0.272855         7.4248 
 139   0.0000       0.274507         7.4697 
 140   0.0000       0.277586         7.5535 
 141   0.0000       0.279846         7.6150 
 142   0.0000       0.288428         7.8485 
 143   0.0000       0.290568         7.9067 
 144   0.0000       0.291053         7.9199 
 145   0.0000       0.293222         7.9790 
 146   0.0000       0.294829         8.0227 
 147   0.0000       0.303123         8.2484 
 148   0.0000       0.304349         8.2818 
 149   0.0000       0.307771         8.3749 
 150   0.0000       0.310771         8.4565 
 151   0.0000       0.312580         8.5057 
 152   0.0000       0.316777         8.6199 
 153   0.0000       0.318738         8.6733 
 154   0.0000       0.323583         8.8052 
 155   0.0000       0.324826         8.8390 
 156   0.0000       0.327137         8.9018 
 157   0.0000       0.330164         8.9842 
 158   0.0000       0.332675         9.0526 
 159   0.0000       0.336332         9.1521 
 160   0.0000       0.338979         9.2241 
 161   0.0000       0.340801         9.2737 
 162   0.0000       0.344610         9.3773 
 163   0.0000       0.348896         9.4939 
 164   0.0000       0.352277         9.5859 
 165   0.0000       0.354381         9.6432 
 166   0.0000       0.355192         9.6653 
 167   0.0000       0.357131         9.7180 
 168   0.0000       0.358035         9.7426 
 169   0.0000       0.364145         9.9089 
 170   0.0000       0.365859         9.9555 
 171   0.0000       0.368292        10.0217 
 172   0.0000       0.370826        10.0907 
 173   0.0000       0.374927        10.2023 
 174   0.0000       0.376668        10.2496 
 175   0.0000       0.379729        10.3330 
 176   0.0000       0.383301        10.4301 
 177   0.0000       0.387398        10.5416 
 178   0.0000       0.389969        10.6116 
 179   0.0000       0.394085        10.7236 
 180   0.0000       0.396712        10.7951 
 181   0.0000       0.398557        10.8453 
 182   0.0000       0.401993        10.9388 
 183   0.0000       0.408211        11.1080 
 184   0.0000       0.408800        11.1240 
 185   0.0000       0.413526        11.2526 
 186   0.0000       0.416694        11.3388 
 187   0.0000       0.423380        11.5207 
 188   0.0000       0.427098        11.6219 
 189   0.0000       0.429125        11.6771 
 190   0.0000       0.431704        11.7473 
 191   0.0000       0.436189        11.8693 
 192   0.0000       0.437397        11.9022 
 193   0.0000       0.445286        12.1169 
 194   0.0000       0.450359        12.2549 
 195   0.0000       0.454266        12.3612 
 196   0.0000       0.456500        12.4220 
 197   0.0000       0.461340        12.5537 
 198   0.0000       0.466935        12.7059 
 199   0.0000       0.468892        12.7592 
 200   0.0000       0.472274        12.8512 
 201   0.0000       0.473763        12.8918 
 202   0.0000       0.475769        12.9463 
 203   0.0000       0.480278        13.0690 
 204   0.0000       0.483728        13.1629 
 205   0.0000       0.489678        13.3248 
 206   0.0000       0.491530        13.3752 
 207   0.0000       0.498317        13.5599 
 208   0.0000       0.500612        13.6223 
 209   0.0000       0.506106        13.7718 
 210   0.0000       0.507548        13.8111 
 211   0.0000       0.508390        13.8340 
 212   0.0000       0.513613        13.9761 
 213   0.0000       0.520572        14.1655 
 214   0.0000       0.525359        14.2958 
 215   0.0000       0.525422        14.2975 
 216   0.0000       0.531427        14.4609 
 217   0.0000       0.537828        14.6350 
 218   0.0000       0.541274        14.7288 
 219   0.0000       0.544804        14.8249 
 220   0.0000       0.549594        14.9552 
 221   0.0000       0.556112        15.1326 
 222   0.0000       0.562742        15.3130 
 223   0.0000       0.563949        15.3458 
 224   0.0000       0.569444        15.4954 
 225   0.0000       0.575147        15.6506 
 226   0.0000       0.578180        15.7331 
 227   0.0000       0.585452        15.9310 
 228   0.0000       0.586804        15.9677 
 229   0.0000       0.592605        16.1256 
 230   0.0000       0.597218        16.2511 
 231   0.0000       0.597542        16.2599 
 232   0.0000       0.601949        16.3799 
 233   0.0000       0.607531        16.5318 
 234   0.0000       0.611202        16.6316 
 235   0.0000       0.615499        16.7486 
 236   0.0000       0.621673        16.9166 
 237   0.0000       0.624646        16.9975 
 238   0.0000       0.628647        17.1064 
 239   0.0000       0.635308        17.2876 
 240   0.0000       0.638272        17.3683 
 241   0.0000       0.648567        17.6484 
 242   0.0000       0.652722        17.7615 
 243   0.0000       0.654739        17.8163 
 244   0.0000       0.662229        18.0202 
 245   0.0000       0.664712        18.0877 
 246   0.0000       0.671335        18.2680 
 247   0.0000       0.672092        18.2886 
 248   0.0000       0.674974        18.3670 
 249   0.0000       0.681739        18.5511 
 250   0.0000       0.687570        18.7097 
 251   0.0000       0.690766        18.7967 
 252   0.0000       0.693535        18.8720 
 253   0.0000       0.696610        18.9557 
 254   0.0000       0.700226        19.0541 
 255   0.0000       0.703350        19.1391 
 256   0.0000       0.704459        19.1693 
 257   0.0000       0.713952        19.4276 
 258   0.0000       0.717070        19.5125 
 259   0.0000       0.720333        19.6013 
 260   0.0000       0.726509        19.7693 
 261   0.0000       0.727348        19.7921 
 262   0.0000       0.735834        20.0231 
 263   0.0000       0.743725        20.2378 
 264   0.0000       0.747174        20.3316 
 265   0.0000       0.749764        20.4021 
 266   0.0000       0.752784        20.4843 
 267   0.0000       0.759408        20.6645 
 268   0.0000       0.760247        20.6874 
 269   0.0000       0.762718        20.7546 
 270   0.0000       0.764146        20.7935 
 271   0.0000       0.765824        20.8391 
 272   0.0000       0.773385        21.0449 
 273   0.0000       0.776569        21.1315 
 274   0.0000       0.779579        21.2134 
 275   0.0000       0.784906        21.3584 
 276   0.0000       0.786549        21.4031 
 277   0.0000       0.789265        21.4770 
 278   0.0000       0.791803        21.5461 
 279   0.0000       0.793348        21.5881 
 280   0.0000       0.795340        21.6423 
 281   0.0000       0.801588        21.8123 
 282   0.0000       0.803070        21.8526 
 283   0.0000       0.809562        22.0293 
 284   0.0000       0.810253        22.0481 
 285   0.0000       0.813980        22.1495 
 286   0.0000       0.821530        22.3550 
 287   0.0000       0.823832        22.4176 
 288   0.0000       0.827306        22.5121 
 289   0.0000       0.832492        22.6533 
 290   0.0000       0.836965        22.7750 
 291   0.0000       0.843428        22.9508 
 292   0.0000       0.847149        23.0521 
 293   0.0000       0.849288        23.1103 
 294   0.0000       0.852609        23.2007 
 295   0.0000       0.858694        23.3663 
 296   0.0000       0.862774        23.4773 
 297   0.0000       0.866653        23.5828 
 298   0.0000       0.875304        23.8182 
 299   0.0000       0.877222        23.8704 
 300   0.0000       0.884789        24.0763 
 301   0.0000       0.887276        24.1440 
 302   0.0000       0.889682        24.2095 
 303   0.0000       0.895568        24.3697 
 304   0.0000       0.900287        24.4980 
 305   0.0000       0.905294        24.6343 
 306   0.0000       0.909321        24.7439 
 307   0.0000       0.909884        24.7592 
 308   0.0000       0.921962        25.0878 
 309   0.0000       0.927640        25.2424 
 310   0.0000       0.930961        25.3327 
 311   0.0000       0.934375        25.4256 
 312   0.0000       0.939200        25.5569 
 313   0.0000       0.949511        25.8375 
 314   0.0000       0.951138        25.8818 
 315   0.0000       0.958463        26.0811 
 316   0.0000       0.968768        26.3615 
 317   0.0000       0.973392        26.4873 
 318   0.0000       0.977895        26.6099 
 319   0.0000       0.987306        26.8660 
 320   0.0000       0.993013        27.0212 
 321   0.0000       0.996771        27.1235 
 322   0.0000       1.004194        27.3255 
 323   0.0000       1.006989        27.4016 
 324   0.0000       1.018379        27.7115 
 325   0.0000       1.022025        27.8107 
 326   0.0000       1.028828        27.9958 
 327   0.0000       1.039908        28.2973 
 328   0.0000       1.041929        28.3523 
 329   0.0000       1.054497        28.6943 
 330   0.0000       1.060670        28.8623 
 331   0.0000       1.061957        28.8973 
 332   0.0000       1.077663        29.3247 
 333   0.0000       1.086044        29.5528 
 334   0.0000       1.094104        29.7721 
 335   0.0000       1.102461        29.9995 
 336   0.0000       1.107876        30.1468 
 337   0.0000       1.117968        30.4214 
 338   0.0000       1.119010        30.4498 
 339   0.0000       1.134026        30.8584 
 340   0.0000       1.138667        30.9847 
 341   0.0000       1.141630        31.0653 
 342   0.0000       1.148460        31.2512 
 343   0.0000       1.161122        31.5957 
 344   0.0000       1.168898        31.8073 
 345   0.0000       1.174777        31.9673 
 346   0.0000       1.185609        32.2621 
 347   0.0000       1.187921        32.3250 
 348   0.0000       1.191641        32.4262 
 349   0.0000       1.207073        32.8461 
 350   0.0000       1.211902        32.9775 
 351   0.0000       1.215778        33.0830 
 352   0.0000       1.222924        33.2775 
 353   0.0000       1.228966        33.4419 
 354   0.0000       1.232089        33.5268 
 355   0.0000       1.243517        33.8378 
 356   0.0000       1.256483        34.1906 
 357   0.0000       1.264415        34.4065 
 358   0.0000       1.270553        34.5735 
 359   0.0000       1.275084        34.6968 
 360   0.0000       1.282142        34.8889 
 361   0.0000       1.292203        35.1626 
 362   0.0000       1.308740        35.6126 
 363   0.0000       1.313574        35.7442 
 364   0.0000       1.318651        35.8823 
 365   0.0000       1.326395        36.0930 
 366   0.0000       1.331393        36.2290 
 367   0.0000       1.338911        36.4336 
 368   0.0000       1.340095        36.4658 
 369   0.0000       1.349708        36.7274 
 370   0.0000       1.353343        36.8263 
 371   0.0000       1.356823        36.9210 
 372   0.0000       1.360889        37.0317 
 373   0.0000       1.373936        37.3867 
 374   0.0000       1.382840        37.6290 
 375   0.0000       1.387075        37.7442 
 376   0.0000       1.392023        37.8789 
 377   0.0000       1.401628        38.1402 
 378   0.0000       1.406865        38.2827 
 379   0.0000       1.419924        38.6381 
 380   0.0000       1.425089        38.7786 
 381   0.0000       1.428817        38.8801 
 382   0.0000       1.441603        39.2280 
 383   0.0000       1.458526        39.6885 
 384   0.0000       1.461272        39.7632 
 385   0.0000       1.461989        39.7827 
 386   0.0000       1.464979        39.8641 
 387   0.0000       1.480081        40.2751 
 388   0.0000       1.488862        40.5140 
 389   0.0000       1.493575        40.6422 
 390   0.0000       1.502712        40.8909 
 391   0.0000       1.506282        40.9880 
 392   0.0000       1.513290        41.1787 
 393   0.0000       1.525653        41.5151 
 394   0.0000       1.532042        41.6890 
 395   0.0000       1.538052        41.8525 
 396   0.0000       1.542246        41.9666 
 397   0.0000       1.548059        42.1248 
 398   0.0000       1.552415        42.2434 
 399   0.0000       1.559386        42.4331 
 400   0.0000       1.580157        42.9983 
 401   0.0000       1.590507        43.2799 
 402   0.0000       1.594233        43.3813 
 403   0.0000       1.600365        43.5481 
 404   0.0000       1.613803        43.9138 
 405   0.0000       1.621795        44.1313 
 406   0.0000       1.628841        44.3230 
 407   0.0000       1.638489        44.5856 
 408   0.0000       1.641477        44.6669 
 409   0.0000       1.661743        45.2183 
 410   0.0000       1.665065        45.3087 
 411   0.0000       1.687963        45.9318 
 412   0.0000       1.695445        46.1354 
 413   0.0000       1.702905        46.3384 
 414   0.0000       1.714398        46.6512 
 415   0.0000       1.716937        46.7202 
 416   0.0000       1.723796        46.9069 
 417   0.0000       1.738672        47.3117 
 418   0.0000       1.740593        47.3639 
 419   0.0000       1.744015        47.4570 
 420   0.0000       1.747319        47.5470 
 421   0.0000       1.752176        47.6791 
 422   0.0000       1.759682        47.8834 
 423   0.0000       1.763470        47.9865 
 424   0.0000       1.774567        48.2884 
 425   0.0000       1.788032        48.6548 
 426   0.0000       1.792984        48.7896 
 427   0.0000       1.804109        49.0923 
 428   0.0000       1.810460        49.2651 
 429   0.0000       1.818853        49.4935 
 430   0.0000       1.824492        49.6470 
 431   0.0000       1.835248        49.9396 
 432   0.0000       1.846258        50.2392 
 433   0.0000       1.852983        50.4222 
 434   0.0000       1.866493        50.7898 
 435   0.0000       1.874421        51.0056 
 436   0.0000       1.887612        51.3645 
 437   0.0000       1.890769        51.4504 
 438   0.0000       1.905734        51.8577 
 439   0.0000       1.912558        52.0433 
 440   0.0000       1.930003        52.5180 
 441   0.0000       1.944695        52.9178 
 442   0.0000       1.954960        53.1972 
 443   0.0000       1.978927        53.8493 
 444   0.0000       1.981827        53.9283 
 445   0.0000       1.990221        54.1567 
 446   0.0000       1.999991        54.4225 
 447   0.0000       2.015038        54.8320 
 448   0.0000       2.017699        54.9044 
 449   0.0000       2.033000        55.3207 
 450   0.0000       2.064264        56.1715 
 451   0.0000       2.067722        56.2656 
 452   0.0000       2.095532        57.0223 
 453   0.0000       2.105957        57.3060 
 454   0.0000       2.117268        57.6138 
 455   0.0000       2.134337        58.0783 
 456   0.0000       2.146454        58.4080 
 457   0.0000       2.151358        58.5414 
 458   0.0000       2.165579        58.9284 
 459   0.0000       2.171217        59.0818 
 460   0.0000       2.184437        59.4416 
 461   0.0000       2.195522        59.7432 
 462   0.0000       2.203130        59.9502 
 463   0.0000       2.209541        60.1247 
 464   0.0000       2.216049        60.3018 
 465   0.0000       2.217590        60.3437 
 466   0.0000       2.224554        60.5332 
 467   0.0000       2.230362        60.6912 
 468   0.0000       2.237980        60.8985 
 469   0.0000       2.247004        61.1441 
 470   0.0000       2.250195        61.2309 
 471   0.0000       2.258195        61.4486 
 472   0.0000       2.268738        61.7355 
 473   0.0000       2.270585        61.7858 
 474   0.0000       2.275689        61.9247 
 475   0.0000       2.280816        62.0642 
 476   0.0000       2.288181        62.2646 
 477   0.0000       2.292437        62.3804 
 478   0.0000       2.298971        62.5582 
 479   0.0000       2.303052        62.6692 
 480   0.0000       2.310585        62.8742 
 481   0.0000       2.319036        63.1042 
 482   0.0000       2.327372        63.3310 
 483   0.0000       2.337115        63.5961 
 484   0.0000       2.343081        63.7585 
 485   0.0000       2.344888        63.8076 
 486   0.0000       2.350160        63.9511 
 487   0.0000       2.353351        64.0379 
 488   0.0000       2.367621        64.4262 
 489   0.0000       2.368426        64.4482 
 490   0.0000       2.373345        64.5820 
 491   0.0000       2.378175        64.7134 
 492   0.0000       2.382768        64.8384 
 493   0.0000       2.395526        65.1856 
 494   0.0000       2.406128        65.4741 
 495   0.0000       2.412958        65.6599 
 496   0.0000       2.419688        65.8430 
 497   0.0000       2.426563        66.0301 
 498   0.0000       2.439611        66.3852 
 499   0.0000       2.442545        66.4650 
 500   0.0000       2.457872        66.8821 
 501   0.0000       2.471431        67.2510 
 502   0.0000       2.477030        67.4034 
 503   0.0000       2.491273        67.7910 
 504   0.0000       2.494911        67.8900 
 505   0.0000       2.501029        68.0565 
 506   0.0000       2.516302        68.4721 
 507   0.0000       2.528185        68.7954 
 508   0.0000       2.536442        69.0201 
 509   0.0000       2.547451        69.3197 
 510   0.0000       2.565867        69.8208 
 511   0.0000       2.570964        69.9595 
 512   0.0000       2.578126        70.1544 
 513   0.0000       2.599575        70.7380 
 514   0.0000       2.615707        71.1770 
 515   0.0000       2.624436        71.4145 
 516   0.0000       2.630709        71.5852 
 517   0.0000       2.651988        72.1643 
 518   0.0000       2.661373        72.4196 
 519   0.0000       2.667219        72.5787 
 520   0.0000       2.683729        73.0280 
 521   0.0000       2.700866        73.4943 
 522   0.0000       2.715680        73.8974 
 523   0.0000       2.748776        74.7980 
 524   0.0000       2.754131        74.9437 
 525   0.0000       2.769953        75.3742 
 526   0.0000       2.773820        75.4795 
 527   0.0000       2.776840        75.5617 
 528   0.0000       2.790409        75.9309 
 529   0.0000       2.792772        75.9952 
 530   0.0000       2.795935        76.0813 
 531   0.0000       2.798386        76.1480 
 532   0.0000       2.811081        76.4934 
 533   0.0000       2.823681        76.8363 
 534   0.0000       2.844631        77.4063 
 535   0.0000       2.852565        77.6222 
 536   0.0000       2.870228        78.1029 
 537   0.0000       2.875977        78.2593 
 538   0.0000       2.890294        78.6489 
 539   0.0000       2.906193        79.0815 
 540   0.0000       2.924061        79.5677 
 541   0.0000       2.936185        79.8977 
 542   0.0000       2.942684        80.0745 
 543   0.0000       2.964311        80.6630 
 544   0.0000       2.974504        80.9404 
 545   0.0000       2.975423        80.9654 
 546   0.0000       2.994287        81.4787 
 547   0.0000       3.004174        81.7477 
 548   0.0000       3.010018        81.9068 
 549   0.0000       3.022703        82.2519 
 550   0.0000       3.028500        82.4097 
 551   0.0000       3.039555        82.7105 
 552   0.0000       3.040618        82.7394 
 553   0.0000       3.050703        83.0138 
 554   0.0000       3.051434        83.0337 
 555   0.0000       3.064880        83.3996 
 556   0.0000       3.068491        83.4979 
 557   0.0000       3.079923        83.8090 
 558   0.0000       3.084312        83.9284 
 559   0.0000       3.101054        84.3840 
 560   0.0000       3.106295        84.5266 
 561   0.0000       3.132416        85.2374 
 562   0.0000       3.138056        85.3908 
 563   0.0000       3.153059        85.7991 
 564   0.0000       3.161327        86.0241 
 565   0.0000       3.169736        86.2529 
 566   0.0000       3.176378        86.4336 
 567   0.0000       3.185233        86.6746 
 568   0.0000       3.201569        87.1191 
 569   0.0000       3.217942        87.5646 
 570   0.0000       3.228204        87.8439 
 571   0.0000       3.230154        87.8970 
 572   0.0000       3.244431        88.2854 
 573   0.0000       3.254298        88.5540 
 574   0.0000       3.261378        88.7466 
 575   0.0000       3.265745        88.8654 
 576   0.0000       3.274188        89.0952 
 577   0.0000       3.287556        89.4589 
 578   0.0000       3.297471        89.7287 
 579   0.0000       3.310966        90.0960 
 580   0.0000       3.315258        90.2128 
 581   0.0000       3.320245        90.3485 
 582   0.0000       3.332275        90.6758 
 583   0.0000       3.336674        90.7955 
 584   0.0000       3.348344        91.1131 
 585   0.0000       3.354525        91.2813 
 586   0.0000       3.370177        91.7072 
 587   0.0000       3.373282        91.7917 
 588   0.0000       3.377895        91.9172 
 589   0.0000       3.383834        92.0788 
 590   0.0000       3.405349        92.6643 
 591   0.0000       3.425107        93.2019 
 592   0.0000       3.427840        93.2763 
 593   0.0000       3.438337        93.5619 
 594   0.0000       3.444093        93.7185 
 595   0.0000       3.464731        94.2801 
 596   0.0000       3.474815        94.5545 
 597   0.0000       3.484533        94.8190 
 598   0.0000       3.492935        95.0476 
 599   0.0000       3.498041        95.1865 
 600   0.0000       3.503483        95.3346 
 601   0.0000       3.517197        95.7078 
 602   0.0000       3.529546        96.0438 
 603   0.0000       3.537761        96.2674 
 604   0.0000       3.547666        96.5369 
 605   0.0000       3.551537        96.6422 
 606   0.0000       3.552543        96.6696 
 607   0.0000       3.562937        96.9524 
 608   0.0000       3.574011        97.2538 
 609   0.0000       3.576972        97.3344 
 610   0.0000       3.600519        97.9751 
 611   0.0000       3.607012        98.1518 
 612   0.0000       3.615701        98.3882 
 613   0.0000       3.623891        98.6111 
 614   0.0000       3.641842        99.0996 
 615   0.0000       3.643649        99.1487 
 616   0.0000       3.647750        99.2603 
 617   0.0000       3.668036        99.8123 
 618   0.0000       3.676252       100.0359 
 619   0.0000       3.682393       100.2030 
 620   0.0000       3.692031       100.4653 
 621   0.0000       3.698629       100.6448 
 622   0.0000       3.703461       100.7763 
 623   0.0000       3.720610       101.2430 
 624   0.0000       3.724008       101.3354 
 625   0.0000       3.736156       101.6660 
 626   0.0000       3.741269       101.8051 
 627   0.0000       3.754895       102.1759 
 628   0.0000       3.762541       102.3840 
 629   0.0000       3.765353       102.4605 
 630   0.0000       3.769309       102.5681 
 631   0.0000       3.784945       102.9936 
 632   0.0000       3.798945       103.3746 
 633   0.0000       3.801586       103.4464 
 634   0.0000       3.807727       103.6135 
 635   0.0000       3.814960       103.8103 
 636   0.0000       3.820166       103.9520 
 637   0.0000       3.836408       104.3940 
 638   0.0000       3.845866       104.6513 
 639   0.0000       3.862224       105.0965 
 640   0.0000       3.867781       105.2477 
 641   0.0000       3.872043       105.3636 
 642   0.0000       3.885025       105.7169 
 643   0.0000       3.902570       106.1943 
 644   0.0000       3.920464       106.6812 
 645   0.0000       3.945840       107.3718 
 646   0.0000       3.955871       107.6447 
 647   0.0000       3.968492       107.9882 
 648   0.0000       3.969988       108.0289 
 649   0.0000       3.995538       108.7241 
 650   0.0000       4.004043       108.9556 
 651   0.0000       4.010148       109.1217 
 652   0.0000       4.023893       109.4957 
 653   0.0000       4.031748       109.7094 
 654   0.0000       4.043994       110.0427 
 655   0.0000       4.051039       110.2344 
 656   0.0000       4.055910       110.3669 
 657   0.0000       4.060926       110.5034 
 658   0.0000       4.088201       111.2456 
 659   0.0000       4.096209       111.4635 
 660   0.0000       4.110820       111.8611 
 661   0.0000       4.114702       111.9667 
 662   0.0000       4.127853       112.3246 
 663   0.0000       4.146576       112.8341 
 664   0.0000       4.158110       113.1479 
 665   0.0000       4.171308       113.5070 
 666   0.0000       4.193150       114.1014 
 667   0.0000       4.203974       114.3960 
 668   0.0000       4.205997       114.4510 
 669   0.0000       4.217689       114.7692 
 670   0.0000       4.230522       115.1184 
 671   0.0000       4.241927       115.4287 
 672   0.0000       4.249443       115.6332 
 673   0.0000       4.254688       115.7760 
 674   0.0000       4.260894       115.9448 
 675   0.0000       4.269962       116.1916 
 676   0.0000       4.281272       116.4993 
 677   0.0000       4.293965       116.8447 
 678   0.0000       4.302357       117.0731 
 679   0.0000       4.307126       117.2029 
 680   0.0000       4.312017       117.3359 
 681   0.0000       4.321172       117.5851 
 682   0.0000       4.330719       117.8449 
 683   0.0000       4.332917       117.9047 
 684   0.0000       4.341001       118.1247 
 685   0.0000       4.348826       118.3376 
 686   0.0000       4.355842       118.5285 
 687   0.0000       4.361908       118.6935 
 688   0.0000       4.370588       118.9297 
 689   0.0000       4.378566       119.1468 
 690   0.0000       4.384771       119.3157 
 691   0.0000       4.388610       119.4202 
 692   0.0000       4.394207       119.5724 
 693   0.0000       4.401153       119.7615 
 694   0.0000       4.411731       120.0493 
 695   0.0000       4.414287       120.1188 
 696   0.0000       4.424950       120.4090 
 697   0.0000       4.437276       120.7444 
 698   0.0000       4.443529       120.9146 
 699   0.0000       4.458648       121.3260 
 700   0.0000       4.471168       121.6667 
 701   0.0000       4.482702       121.9805 
 702   0.0000       4.515159       122.8637 
 703   0.0000       4.516579       122.9024 
 704   0.0000       4.520942       123.0211 
 705   0.0000       4.536876       123.4547 
 706   0.0000       4.550306       123.8201 
 707   0.0000       4.555292       123.9558 
 708   0.0000       4.590190       124.9054 
 709   0.0000       4.601188       125.2047 
 710   0.0000       4.609954       125.4432 
 711   0.0000       4.629078       125.9636 
 712   0.0000       4.642399       126.3261 
 713   0.0000       4.661247       126.8390 
 714   0.0000       4.663513       126.9006 
 715   0.0000       4.673194       127.1641 
 716   0.0000       4.695297       127.7655 
 717   0.0000       4.702609       127.9645 
 718   0.0000       4.720225       128.4438 
 719   0.0000       4.729383       128.6931 
 720   0.0000       4.742188       129.0415 
 721   0.0000       4.762863       129.6041 
 722   0.0000       4.777888       130.0129 
 723   0.0000       4.802006       130.6692 
 724   0.0000       4.824860       131.2911 
 725   0.0000       4.838539       131.6634 
 726   0.0000       4.851723       132.0221 
 727   0.0000       4.894004       133.1726 
 728   0.0000       4.907109       133.5292 
 729   0.0000       4.940756       134.4448 
 730   0.0000       4.949192       134.6744 
 731   0.0000       4.970382       135.2510 
 732   0.0000       4.973337       135.3314 
 733   0.0000       4.996629       135.9652 
 734   0.0000       5.007546       136.2623 
 735   0.0000       5.021845       136.6514 
 736   0.0000       5.037167       137.0683 
 737   0.0000       5.047751       137.3563 
 738   0.0000       5.056896       137.6051 
 739   0.0000       5.066984       137.8796 
 740   0.0000       5.091724       138.5529 
 741   0.0000       5.104582       138.9027 
 742   0.0000       5.109482       139.0361 
 743   0.0000       5.161634       140.4552 
 744   0.0000       5.176443       140.8582 
 745   0.0000       5.203481       141.5939 
 746   0.0000       5.288661       143.9118 
 747   0.0000       5.309860       144.4886 
 748   0.0000       5.320403       144.7755 
 749   0.0000       5.330964       145.0629 
 750   0.0000       5.337237       145.2336 
 751   0.0000       5.357205       145.7770 
 752   0.0000       5.374832       146.2566 
 753   0.0000       5.379237       146.3765 
 754   0.0000       5.400055       146.9430 
 755   0.0000       5.418244       147.4379 
 756   0.0000       5.427143       147.6801 
 757   0.0000       5.452930       148.3818 
 758   0.0000       5.473536       148.9425 
 759   0.0000       5.484989       149.2541 
 760   0.0000       5.488334       149.3452 
 761   0.0000       5.496626       149.5708 
 762   0.0000       5.498976       149.6347 
 763   0.0000       5.516686       150.1167 
 764   0.0000       5.528012       150.4249 
 765   0.0000       5.547328       150.9505 
 766   0.0000       5.553352       151.1144 
 767   0.0000       5.576893       151.7550 
 768   0.0000       5.580526       151.8538 
 769   0.0000       5.608460       152.6140 
 770   0.0000       5.612540       152.7250 
 771   0.0000       5.615534       152.8064 
 772   0.0000       5.627089       153.1209 
 773   0.0000       5.648481       153.7030 
 774   0.0000       5.655487       153.8936 
 775   0.0000       5.669327       154.2702 
 776   0.0000       5.690226       154.8389 
 777   0.0000       5.697206       155.0289 
 778   0.0000       5.723970       155.7571 
 779   0.0000       5.726099       155.8151 
 780   0.0000       5.748619       156.4279 
 781   0.0000       5.751566       156.5081 
 782   0.0000       5.811590       158.1414 
 783   0.0000       5.820983       158.3970 
 784   0.0000       5.837401       158.8437 
 785   0.0000       5.877471       159.9341 
 786   0.0000       5.902664       160.6197 
 787   0.0000       5.908213       160.7707 
 788   0.0000       5.944918       161.7694 
 789   0.0000       5.949072       161.8825 
 790   0.0000       5.954649       162.0342 
 791   0.0000       5.964695       162.3076 
 792   0.0000       5.975229       162.5942 
 793   0.0000       5.992769       163.0715 
 794   0.0000       6.000011       163.2686 
 795   0.0000       6.008067       163.4878 
 796   0.0000       6.032276       164.1466 
 797   0.0000       6.095299       165.8615 
 798   0.0000       6.154654       167.4766 
 799   0.0000       6.167821       167.8349 
 800   0.0000       6.310624       171.7208 
 801   0.0000       6.365698       173.2194 
 802   0.0000       6.566959       178.6960 
 803   0.0000       6.618180       180.0898 
 804   0.0000       6.638294       180.6372 
 805   0.0000       6.721483       182.9009 
 806   0.0000       6.815744       185.4658 
 807   0.0000       6.874543       187.0658 
 808   0.0000       6.929010       188.5479 
 809   0.0000       6.961043       189.4196 
 810   0.0000       7.004961       190.6147 
 811   0.0000       7.048378       191.7961 
 812   0.0000       7.056701       192.0226 
 813   0.0000       7.155333       194.7065 
 814   0.0000       7.203028       196.0043 
 815   0.0000       7.224899       196.5995 
 816   0.0000       7.268774       197.7934 
 817   0.0000       7.337397       199.6607 
 818   0.0000       7.370292       200.5558 
 819   0.0000       7.489938       203.8116 
 820   0.0000       7.539451       205.1589 
 821   0.0000       7.591249       206.5684 
 822   0.0000       7.629151       207.5997 
 823   0.0000       7.881804       214.4748 
 824   0.0000       8.012537       218.0322 
 825   0.0000       8.570554       233.2166 
 826   0.0000       8.587528       233.6785 
 827   0.0000       8.601071       234.0470 
 828   0.0000       8.612400       234.3553 
 829   0.0000       8.613686       234.3903 
 830   0.0000       8.624181       234.6759 
 831   0.0000       8.637825       235.0472 
 832   0.0000       8.655785       235.5359 
 833   0.0000       8.657093       235.5715 
 834   0.0000       8.675702       236.0779 
 835   0.0000       8.697541       236.6721 
 836   0.0000       8.708483       236.9699 
 837   0.0000       8.734867       237.6878 
 838   0.0000       8.752713       238.1734 
 839   0.0000       8.781773       238.9642 
 840   0.0000      11.365036       309.2583 
 841   0.0000      11.420057       310.7555 
 842   0.0000      11.441975       311.3520 
 843   0.0000      11.468082       312.0624 
 844   0.0000      11.500218       312.9368 
 845   0.0000      11.566737       314.7469 
 846   0.0000      11.660958       317.3108 
 847   0.0000      11.686641       318.0097 
 848   0.0000      11.739677       319.4529 
 849   0.0000      23.801090       647.6606 
 850   0.0000      24.005989       653.2362 
 851   0.0000      24.226010       659.2232 
 852   0.0000      24.325870       661.9406 
 853   0.0000      24.442032       665.1015 
 854   0.0000      24.494960       666.5418 
 855   0.0000      24.563775       668.4143 
 856   0.0000      24.664842       671.1645 
 857   0.0000      25.195000       685.5908 
 858   0.0000      26.367242       717.4891 
 859   0.0000      26.481698       720.6036 
 860   0.0000      26.887405       731.6435 
 861   0.0000      31.527810       857.9153 
 862   0.0000      33.079892       900.1496 
 863   0.0000      33.768421       918.8855 
 864   0.0000      45.111528      1227.5471 
 865   0.0000      45.399688      1235.3883 
 866   0.0000      45.511981      1238.4440 
 867   0.0000      45.833739      1247.1995 
 868   0.0000     203.672370      5542.2070 

                    ********************************
                    * MULLIKEN POPULATION ANALYSIS *
                    ********************************

-----------------------
MULLIKEN ATOMIC CHARGES
-----------------------
   0 C :    1.832094
   1 C :   -1.455007
   2 C :   -0.827962
   3 H :    0.112276
   4 H :    0.126514
   5 H :    0.122349
   6 C :    2.810582
   7 O :   -0.275012
   8 C :    0.762577
   9 O :   -0.579862
  10 C :   -0.020182
  11 O :   -0.634801
  12 C :   -0.343593
  13 H :    0.071831
  14 H :    0.096859
  15 H :    0.108240
  16 C :   -0.502193
  17 H :    0.091290
  18 H :    0.073788
  19 H :    0.098213
  20 C :   -0.992941
  21 H :    0.124143
  22 H :    0.154688
  23 H :    0.150799
  24 Au:    0.378960
  25 Cl:   -0.539789
  26 Cl:   -0.411242
  27 Cl:   -0.532619
Sum of atomic charges:   -0.0000000

--------------------------------
MULLIKEN REDUCED ORBITAL CHARGES
--------------------------------
  0 C s       :     2.236633  s :     2.236633
      pz      :     1.232726  p :     1.915232
      px      :     0.818402
      py      :    -0.135896
      dz2     :    -0.008153  d :     0.004992
      dxz     :     0.004721
      dyz     :    -0.012783
      dx2y2   :     0.007825
      dxy     :     0.013382
      f0      :     0.000812  f :     0.011049
      f+1     :     0.000703
      f-1     :     0.002921
      f+2     :     0.001563
      f-2     :     0.001238
      f+3     :     0.001756
      f-3     :     0.002055
  1 C s       :     4.885292  s :     4.885292
      pz      :     1.451526  p :     2.707836
      px      :     0.580280
      py      :     0.676030
      dz2     :    -0.045695  d :    -0.149324
      dxz     :    -0.027451
      dyz     :    -0.013669
      dx2y2   :    -0.017547
      dxy     :    -0.044962
      f0      :     0.000886  f :     0.011203
      f+1     :     0.001420
      f-1     :     0.002126
      f+2     :     0.001423
      f-2     :     0.001659
      f+3     :     0.001511
      f-3     :     0.002178
  2 C s       :     3.439103  s :     3.439103
      pz      :     1.150157  p :     3.313312
      px      :     1.185657
      py      :     0.977498
      dz2     :     0.034646  d :     0.072041
      dxz     :     0.007538
      dyz     :     0.001883
      dx2y2   :     0.014204
      dxy     :     0.013770
      f0      :     0.000617  f :     0.003506
      f+1     :     0.000428
      f-1     :     0.000450
      f+2     :     0.000448
      f-2     :     0.000343
      f+3     :     0.000440
      f-3     :     0.000780
  3 H s       :     0.854859  s :     0.854859
      pz      :     0.007957  p :     0.030832
      px      :     0.016602
      py      :     0.006273
      dz2     :     0.000156  d :     0.002033
      dxz     :     0.000463
      dyz     :     0.000243
      dx2y2   :     0.000718
      dxy     :     0.000454
  4 H s       :     0.849633  s :     0.849633
      pz      :     0.005002  p :     0.021816
      px      :     0.008074
      py      :     0.008740
      dz2     :     0.000489  d :     0.002037
      dxz     :     0.000390
      dyz     :     0.000243
      dx2y2   :     0.000487
      dxy     :     0.000429
  5 H s       :     0.841714  s :     0.841714
      pz      :     0.019399  p :     0.033907
      px      :     0.008287
      py      :     0.006221
      dz2     :     0.000591  d :     0.002029
      dxz     :     0.000626
      dyz     :     0.000676
      dx2y2   :     0.000057
      dxy     :     0.000080
  6 C s       :     2.176376  s :     2.176376
      pz      :     0.558305  p :     1.031895
      px      :     0.276502
      py      :     0.197088
      dz2     :     0.010670  d :    -0.033815
      dxz     :    -0.033556
      dyz     :     0.098784
      dx2y2   :    -0.069356
      dxy     :    -0.040357
      f0      :     0.002112  f :     0.014962
      f+1     :     0.003365
      f-1     :     0.001306
      f+2     :     0.002219
      f-2     :     0.002454
      f+3     :     0.001714
      f-3     :     0.001792
  7 O s       :     3.753725  s :     3.753725
      pz      :     1.561454  p :     4.513460
      px      :     1.448109
      py      :     1.503898
      dz2     :     0.008063  d :     0.005629
      dxz     :    -0.000664
      dyz     :    -0.002403
      dx2y2   :     0.003274
      dxy     :    -0.002640
      f0      :     0.000273  f :     0.002197
      f+1     :     0.000392
      f-1     :     0.000183
      f+2     :     0.000395
      f-2     :     0.000401
      f+3     :     0.000300
      f-3     :     0.000254
  8 C s       :     3.119944  s :     3.119944
      pz      :     0.643230  p :     1.888383
      px      :     0.626261
      py      :     0.618892
      dz2     :     0.006472  d :     0.202037
      dxz     :    -0.000816
      dyz     :     0.080989
      dx2y2   :     0.023759
      dxy     :     0.091633
      f0      :     0.002002  f :     0.027059
      f+1     :     0.001556
      f-1     :     0.004974
      f+2     :     0.003884
      f-2     :     0.003891
[...]
      pz      :     0.137203  p :     0.295125
      px      :     0.081306
      py      :     0.076616
      dz2     :     0.010363  d :     0.029449
      dxz     :     0.009712
      dyz     :     0.009257
      dx2y2   :     0.000069
      dxy     :     0.000048
 14 H s       :     0.691822  s :     0.691822
      pz      :     0.080472  p :     0.269609
      px      :     0.083998
      py      :     0.105139
      dz2     :     0.004751  d :     0.029625
      dxz     :     0.002556
      dyz     :     0.006831
      dx2y2   :     0.008260
      dxy     :     0.007229
 15 H s       :     0.686141  s :     0.686141
      pz      :     0.080921  p :     0.279031
      px      :     0.123866
      py      :     0.074244
      dz2     :     0.003961  d :     0.029355
      dxz     :     0.009061
      dyz     :     0.000462
      dx2y2   :     0.007244
      dxy     :     0.008626
 16 C s       :     2.620934  s :     2.620934
      pz      :     0.882796  p :     2.680181
      px      :     0.881124
      py      :     0.916261
      dz2     :     0.063398  d :     0.416560
      dxz     :     0.112871
      dyz     :     0.081453
      dx2y2   :     0.039203
      dxy     :     0.119634
      f0      :     0.003576  f :     0.030452
      f+1     :     0.004941
      f-1     :     0.003937
      f+2     :     0.004589
      f-2     :     0.005760
      f+3     :     0.004666
      f-3     :     0.002982
 17 H s       :     0.695891  s :     0.695891
      pz      :     0.074043  p :     0.270608
      px      :     0.086522
      py      :     0.110043
      dz2     :     0.003217  d :     0.029491
      dxz     :     0.003836
      dyz     :     0.006515
      dx2y2   :     0.008012
      dxy     :     0.007911
 18 H s       :     0.688665  s :     0.688665
      pz      :     0.104979  p :     0.270746
      px      :     0.083623
      py      :     0.082144
      dz2     :     0.008490  d :     0.029186
      dxz     :     0.007224
      dyz     :     0.006921
      dx2y2   :     0.002991
      dxy     :     0.003559
 19 H s       :     0.693115  s :     0.693115
      pz      :     0.079582  p :     0.271408
      px      :     0.088061
      py      :     0.103765
      dz2     :     0.004133  d :     0.029239
      dxz     :     0.004680
      dyz     :     0.005387
      dx2y2   :     0.007828
      dxy     :     0.007211
 20 C s       :     2.606770  s :     2.606770
      pz      :     0.827779  p :     2.627273
      px      :     0.899623
      py      :     0.899872
      dz2     :     0.104512  d :     0.488683
      dxz     :     0.137372
      dyz     :     0.083696
      dx2y2   :     0.060486
      dxy     :     0.102618
      f0      :     0.005419  f :     0.030691
      f+1     :     0.004880
      f-1     :     0.006066
      f+2     :     0.004533
      f-2     :     0.003821
      f+3     :     0.004052
      f-3     :     0.001921
 21 H s       :     0.688169  s :     0.688169
      pz      :     0.069572  p :     0.264756
      px      :     0.098637
      py      :     0.096546
      dz2     :     0.003819  d :     0.029125
      dxz     :     0.005734
      dyz     :     0.004323
      dx2y2   :     0.008550
      dxy     :     0.006699
 22 H s       :     0.676710  s :     0.676710
      pz      :     0.088039  p :     0.276416
      px      :     0.111796
      py      :     0.076582
      dz2     :     0.007076  d :     0.029598
      dxz     :     0.008157
      dyz     :     0.003847
      dx2y2   :     0.004456
      dxy     :     0.006061
 23 H s       :     0.675849  s :     0.675849
      pz      :     0.085762  p :     0.292263
      px      :     0.083424
      py      :     0.123076
      dz2     :     0.003053  d :     0.029755
      dxz     :     0.001841
      dyz     :     0.007287
      dx2y2   :     0.008643
      dxy     :     0.008932
 24 Aus       :     2.200140  s :     2.200140
      pz      :     2.270234  p :     6.825089
      px      :     2.325550
      py      :     2.229305
      dz2     :     1.918483  d :     9.506532
      dxz     :     1.907797
      dyz     :     1.959264
      dx2y2   :     1.934229
      dxy     :     1.786759
      f0      :     0.012189  f :     0.128388
      f+1     :     0.022703
      f-1     :     0.019357
      f+2     :     0.012953
      f-2     :     0.026788
      f+3     :     0.013429
      f-3     :     0.020970
      g0      :     0.000161  g :     0.001734
      g+1     :     0.000173
      g-1     :     0.000168
      g+2     :     0.000169
      g-2     :     0.000313
      g+3     :     0.000163
      g-3     :     0.000219
      g+4     :     0.000162
      g-4     :     0.000205
 25 Cls       :     5.670486  s :     5.670486
      pz      :     3.622002  p :    11.146231
      px      :     3.771306
      py      :     3.752924
      dz2     :     0.033703  d :     0.182557
      dxz     :     0.048417
      dyz     :     0.042425
      dx2y2   :     0.033707
      dxy     :     0.024305
      f0      :     0.000812  f :     0.005377
      f+1     :     0.000839
      f-1     :     0.001089
      f+2     :     0.000890
      f-2     :     0.001112
      f+3     :     0.000324
      f-3     :     0.000310
 26 Cls       :     5.691306  s :     5.691306
      pz      :     3.877967  p :    11.197728
      px      :     3.541372
      py      :     3.778389
      dz2     :     0.022523  d :     0.196632
      dxz     :     0.043997
      dyz     :     0.031414
      dx2y2   :     0.052106
      dxy     :     0.046591
      f0      :     0.000622  f :     0.006336
      f+1     :     0.000908
      f-1     :     0.000331
      f+2     :     0.000478
      f-2     :     0.000901
      f+3     :     0.001396
      f-3     :     0.001699
 27 Cls       :     5.677048  s :     5.677048
      pz      :     3.633804  p :    11.149409
      px      :     3.781682
      py      :     3.733923
      dz2     :     0.031897  d :     0.185521
      dxz     :     0.042396
      dyz     :     0.055013
      dx2y2   :     0.028116
      dxy     :     0.028099
      f0      :     0.000842  f :     0.005698
      f+1     :     0.000872
      f-1     :     0.001129
      f+2     :     0.000961
      f-2     :     0.001197
      f+3     :     0.000345
      f-3     :     0.000352


                      *****************************
                      * MAYER POPULATION ANALYSIS *
                      *****************************

  NA   - Mulliken gross atomic population
  ZA   - Total nuclear charge
  QA   - Mulliken gross atomic charge
  VA   - Mayer's total valence
  BVA  - Mayer's bonded valence
  FA   - Mayer's free valence

  ATOM       NA         ZA         QA         VA         BVA        FA
  0 C      4.1679     6.0000     1.8321     0.0812     0.0812     0.0000
  1 C      7.4550     6.0000    -1.4550     2.5156     2.5156    -0.0000
  2 C      6.8280     6.0000    -0.8280     3.6836     3.6836    -0.0000
  3 H      0.8877     1.0000     0.1123     1.0131     1.0131    -0.0000
  4 H      0.8735     1.0000     0.1265     1.0294     1.0294    -0.0000
  5 H      0.8777     1.0000     0.1223     1.0195     1.0195     0.0000
  6 C      3.1894     6.0000     2.8106     0.9760     0.9760     0.0000
  7 O      8.2750     8.0000    -0.2750     1.3939     1.3939     0.0000
  8 C      5.2374     6.0000     0.7626     3.5771     3.5771    -0.0000
  9 O      8.5799     8.0000    -0.5799     1.7569     1.7569    -0.0000
 10 C      6.0202     6.0000    -0.0202     2.3001     2.3001    -0.0000
 11 O      8.6348     8.0000    -0.6348     1.7636     1.7636    -0.0000
 12 C      6.3436     6.0000    -0.3436     4.0881     4.0881    -0.0000
 13 H      0.9282     1.0000     0.0718     1.0613     1.0613    -0.0000
 14 H      0.9031     1.0000     0.0969     1.0265     1.0265    -0.0000
 15 H      0.8918     1.0000     0.1082     1.0070     1.0070    -0.0000
 16 C      6.5022     6.0000    -0.5022     3.7969     3.7969     0.0000
 17 H      0.9087     1.0000     0.0913     1.0642     1.0642     0.0000
 18 H      0.9262     1.0000     0.0738     1.0526     1.0526    -0.0000
 19 H      0.9018     1.0000     0.0982     1.0361     1.0361     0.0000
 20 C      6.9929     6.0000    -0.9929     3.8782     3.8782    -0.0000
 21 H      0.8759     1.0000     0.1241     1.0107     1.0107    -0.0000
 22 H      0.8453     1.0000     0.1547     1.0226     1.0226     0.0000
 23 H      0.8492     1.0000     0.1508     1.0352     1.0352     0.0000
 24 Au    18.6210    19.0000     0.3790     2.9561     2.9561    -0.0000
 25 Cl    17.5398    17.0000    -0.5398     0.7307     0.7307    -0.0000
 26 Cl    17.4112    17.0000    -0.4112     0.8344     0.8344     0.0000
 27 Cl    17.5326    17.0000    -0.5326     0.7529     0.7529    -0.0000

  Mayer bond orders larger than 0.100000
B(  0-C ,  1-C ) :   0.2757 B(  0-C ,  2-C ) :   0.7401 B(  0-C ,  9-O ) :  -0.1817 
B(  0-C , 10-C ) :  -0.2426 B(  0-C , 20-C ) :  -0.1006 B(  0-C , 24-Au) :  -0.1495 
B(  0-C , 25-Cl) :  -0.5552 B(  0-C , 27-Cl) :   0.2526 B(  1-C ,  2-C ) :  -0.1615 
B(  1-C ,  6-C ) :   0.8050 B(  1-C ,  7-O ) :   0.1419 B(  1-C , 10-C ) :   0.2741 
B(  1-C , 20-C ) :   0.6493 B(  1-C , 24-Au) :   0.8171 B(  1-C , 25-Cl) :   0.1611 
B(  1-C , 27-Cl) :  -0.5870 B(  2-C ,  3-H ) :   1.0629 B(  2-C ,  4-H ) :   0.9912 
B(  2-C ,  5-H ) :   1.0179 B(  6-C ,  7-O ) :   0.3118 B(  6-C ,  8-C ) :  -0.1656 
B(  6-C ,  9-O ) :   0.1314 B(  6-C , 11-O ) :  -0.1988 B(  6-C , 20-C ) :   0.1967 
B(  6-C , 21-H ) :  -0.1284 B(  6-C , 23-H ) :  -0.1152 B(  6-C , 25-Cl) :   0.2393 
B(  7-O ,  8-C ) :   1.0234 B(  7-O , 16-C ) :  -0.1083 B(  8-C ,  9-O ) :   1.7331 
B(  8-C , 16-C ) :   0.9749 B( 10-C , 11-O ) :   1.6427 B( 10-C , 12-C ) :   1.0536 
B( 10-C , 24-Au) :  -0.2004 B( 12-C , 13-H ) :   0.9676 B( 12-C , 14-H ) :   1.0580 
B( 12-C , 15-H ) :   0.9410 B( 16-C , 17-H ) :   1.0401 B( 16-C , 18-H ) :   0.9933 
B( 16-C , 19-H ) :   0.9903 B( 20-C , 21-H ) :   1.0322 B( 20-C , 22-H ) :   1.0061 
B( 20-C , 23-H ) :   0.9629 B( 24-Au, 25-Cl) :   0.9022 B( 24-Au, 26-Cl) :   0.7045 
B( 24-Au, 27-Cl) :   0.8723 B( 25-Cl, 27-Cl) :   0.1133 

-------
TIMINGS
-------

Total SCF time: 0 days 0 hours 1 min 35 sec 

Total time                  ....      95.727 sec
Sum of individual times     ....      94.663 sec  ( 98.9%)

Fock matrix formation       ....      85.949 sec  ( 89.8%)
  XC integration            ....       6.925 sec  (  8.1% of F)
    Basis function eval.    ....       1.223 sec  ( 17.7% of XC)
    Density eval.           ....       2.422 sec  ( 35.0% of XC)
    XC-Functional eval.     ....       0.070 sec  (  1.0% of XC)
    XC-Potential eval.      ....       2.274 sec  ( 32.8% of XC)
Diagonalization             ....       3.500 sec  (  3.7%)
Density matrix formation    ....       0.119 sec  (  0.1%)
Population analysis         ....       0.169 sec  (  0.2%)
Initial guess               ....       1.828 sec  (  1.9%)
Orbital Transformation      ....       0.000 sec  (  0.0%)
Orbital Orthonormalization  ....       0.000 sec  (  0.0%)
DIIS solution               ....       1.882 sec  (  2.0%)
Grid generation             ....       1.217 sec  (  1.3%)


           ************************************************************
           *        Program running with 24 parallel MPI-processes    *
           *              working on a common directory               *
           ************************************************************

------------------------------------------------------------------------------
                                ORCA  MP2 
------------------------------------------------------------------------------

Freezing NCore=54 chemical core electrons

-------------
RI-MP2 ENERGY
-------------
Dimension of the basis                    ...  869
Memory devoted to MP2                     ... 5000 MB   
Data format for buffers                   ... DOUBLE
Compression type for matrix containers    ... UNCOMPRESSED
Scaling for aa/bb pairs                   ...   4.000e-01
Scaling for ab pairs                      ...   4.700e-01
Overall scaling of the MP2 energy         ...   1.000e+00
Calculating two index integrals           ... done (    0.035 sec)
Cholesky decomposition of V**-1           ... done (    0.462 sec)

-----------------
RI-TRANSFORMATION (AUX index driven)
-----------------

Dimension of the orbital-basis         ... 869
Dimension of the aux-basis             ... 2182
Transformation of internal/external MOs...   27-  79 to   80- 868
Number Format for Storage              ... Double (8 Byte)
Integral mode                          ... Direct

First Phase: integral generation and transformation of MO indices
  Aux angular momentum 0               ... done (    0.193 sec)
  Aux angular momentum 1               ... done (    0.359 sec)
  Aux angular momentum 2               ... done (    0.553 sec)
  Aux angular momentum 3               ... done (    0.498 sec)
  Aux angular momentum 4               ... done (    0.150 sec)
  Aux angular momentum 5               ... done (    0.188 sec)
  Aux angular momentum 6               ... done (    0.234 sec)
Closing buffer VIA ( 0.68 GB; CompressionRatio= 1.00)
  Phase 1 completed in     2.298 sec
Second Phase: sorting and transformation of aux index

IA-Transformation
Memory available                       ... 4905 MB 
Max. # MO pairs treated in a batch     ... 3    
# of internal orbitals                 ... 53
# batches for internal orbitals        ... 1
Closing buffer IAV ( 0.04 GB; CompressionRatio= 1.00)
(ia|v) transformation done in     0.607 sec

  Phase 2 completed in     1.417 sec
RI-Integral transformation completed in     3.748 sec
Opening buffers                              ... done

Starting loop over batches of integrals:

Operator 0  - window                       ... ( 27- 79)x( 80-868)
Operator 0  - Memory available             ...  5000 MB
Operator 0  - Memory needed per MO         ...  13.1 MB
Operator 0  - Number of orbitals per batch ... 3
Operator 0  - Number of batches            ... 1

OPERATOR  0   PASS   0:  MOs    27 ...   29 +   30 ...   32 +   33 ...   35 +   36 ...   38
                            +   39 ...   41 +   42 ...   44 +   45 ...   47 +   48 ...   50
                            +   51 ...   53 +   54 ...   56 +   57 ...   59 +   60 ...   62
                            +   63 ...   65 +   66 ...   68 +   69 ...   71 +   72 ...   74
                            +   75 ...   77 +   78 ...   79
  Reading integrals       ... ok
  Internal MO  29
Time spent in pair loops =     0.412 sec
Deleting buffer (Ka|jb)[aa] ...done

-----------------------------------------------
 RI-MP2 CORRELATION ENERGY:     -1.744983950 Eh
-----------------------------------------------


-------
TIMINGS
-------

Total time                :   12.517 sec
Integral trafo            :    3.760 sec ( 30.0%)
I/O of integrals          :    0.047 sec (  0.4%)
K(i,j) Operators          :    0.278 sec (  2.2%)
T(i,j) pair energies      :    0.048 sec (  0.4%)
V-calculation             :    0.035 sec (  0.3%)
V**(-1/2)                 :    0.462 sec (  3.7%)
Gamma(ia|P)               :    0.000 sec (  0.0%)
Gamma-Trafo               :    0.000 sec (  0.0%)
D(virtual)                :    0.000 sec (  0.0%)
D(internal)               :    0.000 sec (  0.0%)
W(virtual)                :    0.000 sec (  0.0%)
W(internal)               :    0.000 sec (  0.0%)
L(virtual)                :    0.000 sec (  0.0%)
L(internal)               :    0.000 sec (  0.0%)
G(D)                      :    0.000 sec (  0.0%)
G(Z)                      :    0.000 sec (  0.0%)
Z-Vector Solution         :    0.000 sec (  0.0%)
Z-Vector Solution         :    0.000 sec (  0.0%)
3-Index Derivative 
+ Separable RIJ part      :    0.000 sec (  0.0%)
2-Index Derivative 
+ Separable RIJ part      :    0.000 sec (  0.0%)
Separable Gradient (X)    :    0.000 sec (  0.0%)


---------------------------------------
MP2 TOTAL ENERGY:    -2090.926626420 Eh
---------------------------------------


-------------------------------------------------------------------------------
                          DFT DISPERSION CORRECTION                            
                                                                               
                              DFTD3 V3.1  Rev 1                                
                          USING Becke-Johnson damping                          
-------------------------------------------------------------------------------
The DSD-BLYP/2013 functional is recognized
Active option DFTDOPT                   ...         4   

molecular C6(AA) [au] = 14137.833234 


            DFT-D V3
 parameters
 s6 scaling factor         :     0.5700 
 a1 scaling factor         :     0.0000 
 s8 scaling factor         :     0.0000 
 a2 scaling factor         :     5.4000 
 ad hoc parameters k1-k3   :    16.0000     1.3333    -4.0000 

 Edisp/kcal,au: -26.510217699306  -0.042246716531 
 E6   /kcal   : -26.510217699 
 E8   /kcal   :  -0.000000000 
 % E8         :   0.000000000 

-------------------------   ----------------
Dispersion correction           -0.042246717
-------------------------   ----------------


-------------------------   --------------------
FINAL SINGLE POINT ENERGY     -2090.968873136145
-------------------------   --------------------


                            ***************************************
                            *     ORCA property calculations      *
                            ***************************************


  WARNING: The energy has been calculated at the MP2 level but the densities
           used in the property calculations are still SCF densities
           MP2 response densities have not been calculated 
           use %mp2 Density relaxed end
           or  %mp2 Density unrelaxed end

                                    ---------------------
                                    Active property flags
                                    ---------------------
   (+) Dipole Moment


------------------------------------------------------------------------------
                       ORCA ELECTRIC PROPERTIES CALCULATION
------------------------------------------------------------------------------

Dipole Moment Calculation                       ... on
Quadrupole Moment Calculation                   ... off
Polarizability Calculation                      ... off
GBWName                                         ... TMB28_C1.gbw
Electron density file                           ... TMB28_C1.scfp
The origin for moment calculation is the CENTER OF MASS  = ( 0.332761, -0.001158 -0.039568)

-------------
DIPOLE MOMENT
-------------
                                X             Y             Z
Electronic contribution:    184.56396       8.45328     -26.32354
Nuclear contribution   :   -188.12551      -7.68230      26.09317
                        -----------------------------------------
Total Dipole Moment    :     -3.56155       0.77098      -0.23037
                        -----------------------------------------
Magnitude (a.u.)       :      3.65132
Magnitude (Debye)      :      9.28091



--------------------
Rotational spectrum 
--------------------
 
Rotational constants in cm-1:     0.016324     0.007365     0.006921 
Rotational constants in MHz :   489.388468   220.811279   207.480820 

 Dipole components along the rotational axes: 
x,y,z [a.u.] :    -3.568727     0.696727    -0.332958 
x,y,z [Debye]:    -9.070983     1.770940    -0.846312 

 

Timings for individual modules:

Sum of individual times         ...      113.387 sec (=   1.890 min)
GTO integral calculation        ...        3.998 sec (=   0.067 min)   3.5 %
SCF iterations                  ...       96.125 sec (=   1.602 min)  84.8 %
MP2 module                      ...       13.264 sec (=   0.221 min)  11.7 %
                             ****ORCA TERMINATED NORMALLY****
TOTAL RUN TIME: 0 days 0 hours 1 minutes 54 seconds 71 msec
