
                                 *****************
                                 * O   R   C   A *
                                 *****************

           --- An Ab Initio, DFT and Semiempirical electronic structure package ---

                  #######################################################
                  #                        -***-                        #
                  #          Department of theory and spectroscopy      #
                  #               Directorship: Frank Neese             #
                  #        Max Planck Institute fuer Kohlenforschung    #
                  #                Kaiser Wilhelm Platz 1               #
                  #                 D-45470 Muelheim/Ruhr               #
                  #                      Germany                        #
                  #                                                     #
                  #                  All rights reserved                #
                  #                        -***-                        #
                  #######################################################


                         Program Version 4.2.0 -  RELEASE  -


 With contributions from (in alphabetic order):
   Daniel Aravena         : Magnetic Suceptibility
   Michael Atanasov       : Ab Initio Ligand Field Theory (pilot matlab implementation)
   Alexander A. Auer      : GIAO ZORA, VPT2
   Ute Becker             : Parallelization
   Giovanni Bistoni       : ED, misc. LED, open-shell LED, HFLED
   Martin Brehm           : Molecular dynamics
   Dmytro Bykov           : SCF Hessian
   Vijay G. Chilkuri      : MRCI spin determinant printing, contributions to CSF-ICE
   Dipayan Datta          : RHF DLPNO-CCSD density
   Achintya Kumar Dutta   : EOM-CC, STEOM-CC
   Dmitry Ganyushin       : Spin-Orbit,Spin-Spin,Magnetic field MRCI
   Miquel Garcia          : C-PCM Hessian, Gaussian charge scheme
   Yang Guo               : DLPNO-NEVPT2, CIM, IAO-localization
   Andreas Hansen         : Spin unrestricted coupled pair/coupled cluster methods
   Benjamin Helmich-Paris : CASSCF linear response (MC-RPA)
   Lee Huntington         : MR-EOM, pCC
   Robert Izsak           : Overlap fitted RIJCOSX, COSX-SCS-MP3, EOM
   Christian Kollmar      : KDIIS, OOCD, Brueckner-CCSD(T), CCSD density
   Simone Kossmann        : Meta GGA functionals, TD-DFT gradient, OOMP2, MP2 Hessian
   Martin Krupicka        : AUTO-CI
   Lucas Lang             : DCDCAS
   Dagmar Lenk            : GEPOL surface, SMD
   Dimitrios Liakos       : Extrapolation schemes; Compound Job, initial MDCI parallelization
   Dimitrios Manganas     : Further ROCIS development; embedding schemes
   Dimitrios Pantazis     : SARC Basis sets
   Taras Petrenko         : DFT Hessian,TD-DFT gradient, ASA, ECA, R-Raman, ABS, FL, XAS/XES, NRVS
   Peter Pinski           : DLPNO-MP2, DLPNO-MP2 Gradient
   Christoph Reimann      : Effective Core Potentials
   Marius Retegan         : Local ZFS, SOC
   Christoph Riplinger    : Optimizer, TS searches, QM/MM, DLPNO-CCSD(T), (RO)-DLPNO pert. Triples
   Tobias Risthaus        : Range-separated hybrids, TD-DFT gradient, RPA, STAB
   Michael Roemelt        : Original ROCIS implementation
   Masaaki Saitow         : Open-shell DLPNO-CCSD energy and density
   Barbara Sandhoefer     : DKH picture change effects
   Avijit Sen             : IP-ROCIS
   Kantharuban Sivalingam : CASSCF convergence, NEVPT2, FIC-MRCI
   Bernardo de Souza      : ESD, SOC TD-DFT
   Georgi Stoychev        : AutoAux, RI-MP2 NMR
   Willem Van den Heuvel  : Paramagnetic NMR
   Boris Wezisla          : Elementary symmetry handling
   Frank Wennmohs         : Technical directorship


 We gratefully acknowledge several colleagues who have allowed us to
 interface, adapt or use parts of their codes:
   Stefan Grimme, W. Hujo, H. Kruse,             : VdW corrections, initial TS optimization,
                  C. Bannwarth                     DFT functionals, gCP, sTDA/sTD-DF
   Ed Valeev, F. Pavosevic, A. Kumar             : LibInt (2-el integral package), F12 methods
   Garnet Chan, S. Sharma, J. Yang, R. Olivares  : DMRG
   Ulf Ekstrom                                   : XCFun DFT Library
   Mihaly Kallay                                 : mrcc  (arbitrary order and MRCC methods)
   Andreas Klamt, Michael Diedenhofen            : otool_cosmo (COSMO solvation model)
   Jiri Pittner, Ondrej Demel                    : Mk-CCSD
   Frank Weinhold                                : gennbo (NPA and NBO analysis)
   Christopher J. Cramer and Donald G. Truhlar   : smd solvation model
   Lars Goerigk                                  : TD-DFT with DH, B97 family of functionals
   V. Asgeirsson, H. Jonsson                     : NEB implementation
   FAccTs GmbH                                   : IRC, NEB, NEB-TS, Multilevel, MM, QM/MM, CI optimization
   S Lehtola, MJT Oliveira, MAL Marques          : LibXC Library


 Your calculation uses the libint2 library for the computation of 2-el integrals
 For citations please refer to: http://libint.valeyev.net

 Your ORCA version has been built with support for libXC version: 4.2.3
 For citations please refer to: https://tddft.org/programs/libxc/

 This ORCA versions uses:
   CBLAS   interface :  Fast vector & matrix operations
   LAPACKE interface :  Fast linear algebra routines
   SCALAPACK package :  Parallel linear algebra routines


Your calculation utilizes the atom-pairwise dispersion correction
with the Becke-Johnson damping scheme (D3BJ)
Cite in your paper:
S.Grimme, S.Ehrlich, L.Goerigk, J Comput Chem, (2011), 32, 1456–1465 
S.Grimme, J.Antony, S.Ehrlich and H.Krieg, J.Chem.Phys., 132, (2010), 154104 
   

----- Orbital basis set information -----
Your calculation utilizes the basis: def2-TZVPPD
   F. Weigend and R. Ahlrichs, Phys. Chem. Chem. Phys. 7, 3297 (2005).
   D. Rappoport and F. Furche, J. Chem. Phys. 133 134105 (2010).

----- AuxC basis set information -----
Your calculation utilizes the auxiliary basis: def2-TZVPPD/C
   A. Hellweg, C. Hattig, S. Hofener and W. Klopper, Theor. Chem. Acc. 117, 587 (2007).

----- AuxJK basis set information -----
Your calculation utilizes the auxiliary basis: def2/JK
   H-Ba, Hf-Rn: F. Weigend, J. Comput. Chem. 29, 167 (2008).

cite the ECPs for Au [Def2-ECP] as follows:
Ce-Yb(ecp-28): M. Dolg, H. Stoll, H.Preuss, J. Chem. Phys., 1989, 90, 1730-1734.
Y-Cd(ecp-28), Hf-Hg(ecp-46): D. Andrae,U. Haeussermann, M. Dolg, H. Stoll, H. Preuss, Theor. Chim. Acta, 1990, 77, 123-141.
In-Sb(ecp-28), Tl-Bi(ecp-46): B. Metz, H. Stoll, M. Dolg, J. Chem. Phys., 2000, 113, 2563-2569.
Te-Xe(ecp-28), Po-Rn(ecp-46): K. A. Peterson, D. Figgen, E. Goll, H. Stoll, M. Dolg, J. Chem. Phys., 2003, 119, 11113-11123.
Rb(ecp-28), Cs(ecp-46): T. Leininger, A. Nicklass, W. Kuechle, H. Stoll, M. Dolg, A. Bergner, Chem. Phys. Lett., 1996, 255, 274-280.
Sr(ecp-28), Ba(ecp-46): M. Kaupp, P. V. Schleyer, H. Stoll and H. Preuss, J. Chem. Phys., 1991, 94, 1360-1366.
La(ecp-46): M. Dolg, H. Stoll, A. Savin, H. Preuss, Theor. Chim. Acta, 1989, 75, 173-194.
Lu(ecp-28): X. Cao, M. Dolg, J. Chem. Phys., 2001, 115, 7348-7355.

ECP parameters for Au [Def2-ECP] have been obtained from:
TURBOMOLE (7.0.2)

================================================================================
                                        WARNINGS
                       Please study these warnings very carefully!
================================================================================


WARNING: No MP2 level density has been requested!
         To caclulate MP2 level properties use
         %mp2 Density relaxed end
         or
         %mp2 Density unrelaxed end
         Otherwise for double-hybrid DFT only the energy is correct!

WARNING: There are different parametrizations of Gershom Martin's DSD-DFs
         for use with and without D3(BJ)!
         You are using the D3(BJ) parametrized version,
         consistent with the 2013 article (S. Kozuch and J. M. L. Martin, JCC 2013, 34, 2327)

WARNING: The frozen-core approximation is turned on by default for 
         the MP2 part of double-hybrid DFT.

INFO   : the flag for use of LIBINT has been found!

================================================================================
                                       INPUT FILE
================================================================================
NAME = TMB28_T1.in
|  1> #
|  2> # TMB28_T1 ri-DSD-BLYP/2013-D3BJ/Def2-TZVPPD
|  3> #
|  4> ! rijk ri-dsd-blyp/2013 d3bj def2-tzvppd def2/jk def2-tzvppd/c grid4 nofinalgrid
|  5> 
|  6> *xyz 0 1
|  7> C       -0.472087   -1.270184   -0.544262 
|  8> C       -1.371263   -0.408913   -0.410763 
|  9> C       -0.283188   -2.679486   -0.928311 
| 10> H       -1.250337   -3.132270   -1.147533 
| 11> H        0.355340   -2.736203   -1.811412 
| 12> H        0.207850   -3.220295   -0.118359 
| 13> C       -2.087605    0.860649   -0.268000 
| 14> O       -3.384272    0.602181    0.322954 
| 15> C       -3.916162   -0.562532   -0.037107 
| 16> O       -3.286397   -1.359772   -0.698080 
| 17> C       -1.360806    1.791956    0.779385 
| 18> O       -0.796250    2.763376    0.375084 
| 19> C       -1.472551    1.401357    2.216606 
| 20> H       -1.203914    0.352090    2.355444 
| 21> H       -0.810137    2.031512    2.804683 
| 22> H       -2.503869    1.535124    2.549793 
| 23> C       -5.307153   -0.755812    0.455050 
| 24> H       -5.663745   -1.741165    0.170882 
| 25> H       -5.328847   -0.642840    1.539841 
| 26> H       -5.952574    0.015643    0.032531 
| 27> C       -2.259938    1.568911   -1.595082 
| 28> H       -2.813189    2.495499   -1.446777 
| 29> H       -1.275651    1.804221   -1.997337 
| 30> H       -2.786554    0.924255   -2.298279 
| 31> Au       1.278819   -0.204328   -0.045979 
| 32> Cl       1.126476   -1.118462    2.051374 
| 33> Cl       3.319842    0.694072    0.431966 
| 34> Cl       1.372434    0.585236   -2.189571 
| 35> *
| 36> 
| 37> %maxcore 5000
| 38> 
| 39> %pal
| 40> nprocs = 24
| 41> end
| 42> 
| 43> 
| 44>                          ****END OF INPUT****
================================================================================

                       ****************************
                       * Single Point Calculation *
                       ****************************

---------------------------------
CARTESIAN COORDINATES (ANGSTROEM)
---------------------------------
  C     -0.472087   -1.270184   -0.544262
  C     -1.371263   -0.408913   -0.410763
  C     -0.283188   -2.679486   -0.928311
  H     -1.250337   -3.132270   -1.147533
  H      0.355340   -2.736203   -1.811412
  H      0.207850   -3.220295   -0.118359
  C     -2.087605    0.860649   -0.268000
  O     -3.384272    0.602181    0.322954
  C     -3.916162   -0.562532   -0.037107
  O     -3.286397   -1.359772   -0.698080
  C     -1.360806    1.791956    0.779385
  O     -0.796250    2.763376    0.375084
  C     -1.472551    1.401357    2.216606
  H     -1.203914    0.352090    2.355444
  H     -0.810137    2.031512    2.804683
  H     -2.503869    1.535124    2.549793
  C     -5.307153   -0.755812    0.455050
  H     -5.663745   -1.741165    0.170882
  H     -5.328847   -0.642840    1.539841
  H     -5.952574    0.015643    0.032531
  C     -2.259938    1.568911   -1.595082
  H     -2.813189    2.495499   -1.446777
  H     -1.275651    1.804221   -1.997337
  H     -2.786554    0.924255   -2.298279
  Au     1.278819   -0.204328   -0.045979
  Cl     1.126476   -1.118462    2.051374
  Cl     3.319842    0.694072    0.431966
  Cl     1.372434    0.585236   -2.189571

----------------------------
CARTESIAN COORDINATES (A.U.)
----------------------------
  NO LB      ZA    FRAG     MASS         X           Y           Z
   0 C     6.0000    0    12.011   -0.892115   -2.400300   -1.028506
   1 C     6.0000    0    12.011   -2.591312   -0.772734   -0.776230
   2 C     6.0000    0    12.011   -0.535148   -5.063495   -1.754254
   3 H     1.0000    0     1.008   -2.362795   -5.919132   -2.168523
   4 H     1.0000    0     1.008    0.671495   -5.170674   -3.423073
   5 H     1.0000    0     1.008    0.392780   -6.085476   -0.223666
   6 C     6.0000    0    12.011   -3.945002    1.626391   -0.506447
   7 O     8.0000    0    15.999   -6.395347    1.137957    0.610295
   8 C     6.0000    0    12.011   -7.400474   -1.063031   -0.070122
   9 O     8.0000    0    15.999   -6.210390   -2.569597   -1.319180
  10 C     6.0000    0    12.011   -2.571551    3.386306    1.472824
  11 O     8.0000    0    15.999   -1.504694    5.222024    0.708806
  12 C     6.0000    0    12.011   -2.782718    2.648181    4.188778
  13 H     1.0000    0     1.008   -2.275068    0.665354    4.451144
  14 H     1.0000    0     1.008   -1.530937    3.839001    5.300083
  15 H     1.0000    0     1.008   -4.731627    2.900964    4.818410
  16 C     6.0000    0    12.011  -10.029066   -1.428278    0.859920
  17 H     1.0000    0     1.008  -10.702927   -3.290325    0.322920
  18 H     1.0000    0     1.008  -10.070061   -1.214792    2.909878
  19 H     1.0000    0     1.008  -11.248735    0.029561    0.061475
  20 C     6.0000    0    12.011   -4.270664    2.964812   -3.014268
  21 H     1.0000    0     1.008   -5.316157    4.715810   -2.734012
  22 H     1.0000    0     1.008   -2.410631    3.409484   -3.774420
  23 H     1.0000    0     1.008   -5.265824    1.746589   -4.343118
  24 Au   19.0000*   0   196.966    2.416618   -0.386124   -0.086888
  25 Cl   17.0000    0    35.453    2.128731   -2.113587    3.876535
  26 Cl   17.0000    0    35.453    6.273592    1.311606    0.816297
  27 Cl   17.0000    0    35.453    2.593524    1.105936   -4.137690
* core charge reduced due to ECP

--------------------------------
INTERNAL COORDINATES (ANGSTROEM)
--------------------------------
 C      0   0   0     0.000000000000     0.00000000     0.00000000
 C      1   0   0     1.252248856026     0.00000000     0.00000000
 C      1   2   0     1.472857289015   141.07702461     0.00000000
 H      3   1   2     1.090159999331   109.63750653   358.03721652
 H      3   1   2     1.091238837778   109.62088466   118.34092398
 H      3   1   2     1.090694702577   109.78852170   237.02701532
 C      2   1   3     1.464689320975   163.28020086   197.46470051
 O      7   2   1     1.448232593898   108.84248464   200.91155478
 C      8   7   2     1.330077918090   113.81988782   326.29476002
 O      9   8   7     1.212056467147   121.05277956     6.51185867
 C      7   2   1     1.578792213331   110.53729082   314.88136912
 O     11   7   2     1.194085253295   118.22385184   109.46910521
 C     11   7   2     1.493538994023   116.72315645   287.68231112
 H     13  11   7     1.091972099141   110.80825707    50.68828866
 H     13  11   7     1.087070461999   108.86757826   171.50893416
 H     13  11   7     1.092027474188   109.40404845   291.55296993
 C      9   8   7     1.488096647779   113.45346579   186.21059033
 H     17   9   8     1.085739306324   109.77423071   182.81323835
 H     17   9   8     1.090873418918   109.51315684   304.10736463
 H     17   9   8     1.090978180179   109.45482488    61.68024420
 C      7   2   1     1.514093906684   112.06737085    79.23555669
 H     21   7   2     1.089332990306   109.65604914   178.86896945
 H     21   7   2     1.089036629087   108.78077681   297.98435516
 H     21   7   2     1.089675084877   110.11383430    57.42518388
 Au     1   2   3     2.109503918380   102.90264063   179.02463072
 Cl    25   1   2     2.292976006463    87.67772502    98.14714879
 Cl    25   1   2     2.280642205510   172.45375702   181.42782011
 Cl    25   1   2     2.286298698942    89.25579408   276.20020864

---------------------------
INTERNAL COORDINATES (A.U.)
---------------------------
 C      0   0   0     0.000000000000     0.00000000     0.00000000
 C      1   0   0     2.366407389405     0.00000000     0.00000000
 C      1   2   0     2.783296910589   141.07702461     0.00000000
 H      3   1   2     2.060103840891   109.63750653   358.03721652
 H      3   1   2     2.062142550098   109.62088466   118.34092398
 H      3   1   2     2.061114283589   109.78852170   237.02701532
 C      2   1   3     2.767861687921   163.28020086   197.46470051
 O      7   2   1     2.736762980686   108.84248464   200.91155478
 C      8   7   2     2.513483001966   113.81988782   326.29476002
 O      9   8   7     2.290454781757   121.05277956     6.51185867
 C      7   2   1     2.983484905563   110.53729082   314.88136912
 O     11   7   2     2.256494109282   118.22385184   109.46910521
 C     11   7   2     2.822379669036   116.72315645   287.68231112
 H     13  11   7     2.063528213259   110.80825707    50.68828866
 H     13  11   7     2.054265461453   108.86757826   171.50893416
 H     13  11   7     2.063632856934   109.40404845   291.55296993
 C      9   8   7     2.812095125108   113.45346579   186.21059033
 H     17   9   8     2.051749941786   109.77423071   182.81323835
 H     17   9   8     2.061452008529   109.51315684   304.10736463
 H     17   9   8     2.061649978622   109.45482488    61.68024420
 C      7   2   1     2.861222824671   112.06737085    79.23555669
 H     21   7   2     2.058541020325   109.65604914   178.86896945
 H     21   7   2     2.057980978784   108.78077681   297.98435516
 H     21   7   2     2.059187485374   110.11383430    57.42518388
 Au     1   2   3     3.986384684172   102.90264063   179.02463072
 Cl    25   1   2     4.333096683867    87.67772502    98.14714879
 Cl    25   1   2     4.309789177876   172.45375702   181.42782011
 Cl    25   1   2     4.320478401341    89.25579408   276.20020864

---------------------
BASIS SET INFORMATION
---------------------
There are 5 groups of distinct atoms

 Group   1 Type C   : 12s6p3d1f contracted to 6s3p3d1f pattern {621111/411/111/1}
 Group   2 Type H   : 5s3p1d contracted to 3s3p1d pattern {311/111/1}
 Group   3 Type O   : 12s7p3d1f contracted to 6s4p3d1f pattern {621111/4111/111/1}
 Group   4 Type Au  : 8s8p6d2f1g contracted to 6s5p3d2f1g pattern {311111/41111/411/11/1}
 Group   5 Type Cl  : 15s10p4d1f contracted to 6s6p4d1f pattern {732111/511111/1111/1}

Atom   0C    basis set group =>   1
Atom   1C    basis set group =>   1
Atom   2C    basis set group =>   1
Atom   3H    basis set group =>   2
Atom   4H    basis set group =>   2
Atom   5H    basis set group =>   2
Atom   6C    basis set group =>   1
Atom   7O    basis set group =>   3
Atom   8C    basis set group =>   1
Atom   9O    basis set group =>   3
Atom  10C    basis set group =>   1
Atom  11O    basis set group =>   3
Atom  12C    basis set group =>   1
Atom  13H    basis set group =>   2
Atom  14H    basis set group =>   2
Atom  15H    basis set group =>   2
Atom  16C    basis set group =>   1
Atom  17H    basis set group =>   2
Atom  18H    basis set group =>   2
Atom  19H    basis set group =>   2
Atom  20C    basis set group =>   1
Atom  21H    basis set group =>   2
Atom  22H    basis set group =>   2
Atom  23H    basis set group =>   2
Atom  24Au   basis set group =>   4
Atom  25Cl   basis set group =>   5
Atom  26Cl   basis set group =>   5
Atom  27Cl   basis set group =>   5
---------------------------------
AUXILIARY/C BASIS SET INFORMATION
---------------------------------
There are 5 groups of distinct atoms

 Group   1 Type C   : 9s7p6d4f1g contracted to 9s7p5d4f1g pattern {111111111/1111111/21111/1111/1}
 Group   2 Type H   : 5s4p3d1f contracted to 5s4p3d1f pattern {11111/1111/111/1}
 Group   3 Type O   : 9s7p6d4f1g contracted to 9s7p5d4f1g pattern {111111111/1111111/21111/1111/1}
 Group   4 Type Au  : 9s9p8d5f4g3h1i contracted to 9s9p8d5f4g3h1i pattern {111111111/111111111/11111111/11111/1111/111/1}
 Group   5 Type Cl  : 12s9p8d6f2g contracted to 12s9p8d6f2g pattern {111111111111/111111111/11111111/111111/11}

Atom   0C    basis set group =>   1
Atom   1C    basis set group =>   1
Atom   2C    basis set group =>   1
Atom   3H    basis set group =>   2
Atom   4H    basis set group =>   2
Atom   5H    basis set group =>   2
Atom   6C    basis set group =>   1
Atom   7O    basis set group =>   3
Atom   8C    basis set group =>   1
Atom   9O    basis set group =>   3
Atom  10C    basis set group =>   1
Atom  11O    basis set group =>   3
Atom  12C    basis set group =>   1
Atom  13H    basis set group =>   2
Atom  14H    basis set group =>   2
Atom  15H    basis set group =>   2
Atom  16C    basis set group =>   1
Atom  17H    basis set group =>   2
Atom  18H    basis set group =>   2
Atom  19H    basis set group =>   2
Atom  20C    basis set group =>   1
Atom  21H    basis set group =>   2
Atom  22H    basis set group =>   2
Atom  23H    basis set group =>   2
Atom  24Au   basis set group =>   4
Atom  25Cl   basis set group =>   5
Atom  26Cl   basis set group =>   5
Atom  27Cl   basis set group =>   5
----------------------------------
AUXILIARY/JK BASIS SET INFORMATION
----------------------------------
There are 5 groups of distinct atoms

 Group   1 Type C   : 14s10p6d2f1g contracted to 10s8p5d1f1g pattern {5111111111/31111111/21111/2/1}
 Group   2 Type H   : 4s2p2d contracted to 2s2p2d pattern {31/11/11}
 Group   3 Type O   : 14s10p6d2f1g contracted to 10s8p4d2f1g pattern {5111111111/31111111/3111/11/1}
 Group   4 Type Au  : 13s12p11d9f5g3h2i contracted to 13s11p10d8f4g3h2i pattern {1111111111111/21111111111/2111111111/21111111/2111/111/11}
 Group   5 Type Cl  : 16s12p10d4f1g contracted to 13s11p9d4f1g pattern {4111111111111/21111111111/211111111/1111/1}

Atom   0C    basis set group =>   1
Atom   1C    basis set group =>   1
Atom   2C    basis set group =>   1
Atom   3H    basis set group =>   2
Atom   4H    basis set group =>   2
Atom   5H    basis set group =>   2
Atom   6C    basis set group =>   1
Atom   7O    basis set group =>   3
Atom   8C    basis set group =>   1
Atom   9O    basis set group =>   3
Atom  10C    basis set group =>   1
Atom  11O    basis set group =>   3
Atom  12C    basis set group =>   1
Atom  13H    basis set group =>   2
Atom  14H    basis set group =>   2
Atom  15H    basis set group =>   2
Atom  16C    basis set group =>   1
Atom  17H    basis set group =>   2
Atom  18H    basis set group =>   2
Atom  19H    basis set group =>   2
Atom  20C    basis set group =>   1
Atom  21H    basis set group =>   2
Atom  22H    basis set group =>   2
Atom  23H    basis set group =>   2
Atom  24Au   basis set group =>   4
Atom  25Cl   basis set group =>   5
Atom  26Cl   basis set group =>   5
Atom  27Cl   basis set group =>   5
-------------------------
ECP PARAMETER INFORMATION
-------------------------

 Group 1, Type Au ECP Def2-ECP (replacing 60 core electrons, lmax=3)

Atom  24Au   ECP group =>   1



           ************************************************************
           *        Program running with 24 parallel MPI-processes    *
           *              working on a common directory               *
           ************************************************************
------------------------------------------------------------------------------
                           ORCA GTO INTEGRAL CALCULATION
                           -- RI-GTO INTEGRALS CHOSEN --
------------------------------------------------------------------------------

                         BASIS SET STATISTICS AND STARTUP INFO

Gaussian basis set:
 # of primitive gaussian shells          ...  490
 # of primitive gaussian functions       ... 1162
 # of contracted shells                  ...  311
 # of contracted basis functions         ...  869
 Highest angular momentum                ...    4
 Maximum contraction depth               ...    7
Auxiliary gaussian basis set:
 # of primitive gaussian shells          ...  676
 # of primitive gaussian functions       ... 2092
 # of contracted shells                  ...  537
 # of contracted aux-basis functions     ... 1753
 Highest angular momentum                ...    6
 Maximum contraction depth               ...    5
Ratio of auxiliary to basis functions    ...  2.02
Integral package used                  ... LIBINT
 One Electron integrals                  
   ECP integrals                         ... done
 Ordering auxiliary basis shells         ... done
 Integral threshhold             Thresh  ...  1.000e-10
 Primitive cut-off               TCut    ...  1.000e-11
 Pre-screening matrix                    ... done
 Shell pair data                         ... 
 Ordering of the shell pairs             ... done (   0.007 sec) 40003 of 48516 pairs
 Determination of significant pairs      ... done (   0.000 sec)
 Creation of shell pair data             ... done (   0.004 sec)
 Storage of shell pair data              ... done (   0.006 sec)
 Shell pair data done in (   0.018 sec)
 Computing two index integrals           ... done
 Cholesky decomposition of the V-matrix  ... done


Timings:
 Total evaluation time                   ...   3.631 sec (  0.061 min)
 One electron matrix time                ...   2.894 sec (  0.048 min) = 79.7%
 Schwartz matrix evaluation time         ...   0.421 sec (  0.007 min) = 11.6%
 Two index repulsion integral time       ...   0.136 sec (  0.002 min) =  3.7%
 Cholesky decomposition of V             ...   0.130 sec (  0.002 min) =  3.6%
 Three index repulsion integral time     ...   0.000 sec (  0.000 min) =  0.0%



           ************************************************************
           *        Program running with 24 parallel MPI-processes    *
           *              working on a common directory               *
           ************************************************************
-------------------------------------------------------------------------------
                                 ORCA SCF
-------------------------------------------------------------------------------

------------
SCF SETTINGS
------------
Hamiltonian:
 Density Functional     Method          .... DFT(GTOs)
 Exchange Functional    Exchange        .... B88
   X-Alpha parameter    XAlpha          ....  0.666667
   Becke's b parameter  XBeta           ....  0.004200
 Correlation Functional Correlation     .... LYP
 LDA part of GGA corr.  LDAOpt          .... VWN-5
 Gradients option       PostSCFGGA      .... off
 Hybrid DFT is turned on
   Fraction HF Exchange ScalHFX         ....  0.710000
   Scaling of DF-GGA-X  ScalDFX         ....  0.290000
   Scaling of DF-GGA-C  ScalDFC         ....  0.540000
   Scaling of DF-LDA-C  ScalLDAC        ....  0.540000
   Perturbative correction              ....  1.000000
   Density functional embedding theory  .... OFF
 RI-approximation to the Coulomb term is turned on
   Number of auxiliary basis functions  .... 1753
   RI-JK (J+K treated both via RI)      .... on


General Settings:
 Integral files         IntName         .... TMB28_T1
 Hartree-Fock type      HFTyp           .... RHF
 Total Charge           Charge          ....    0
 Multiplicity           Mult            ....    1
 Number of Electrons    NEL             ....  160
 Basis Dimension        Dim             ....  869
 Nuclear Repulsion      ENuc            ....   1815.7180678798 Eh

Convergence Acceleration:
 DIIS                   CNVDIIS         .... on
   Start iteration      DIISMaxIt       ....    12
   Startup error        DIISStart       ....  0.200000
   # of expansion vecs  DIISMaxEq       ....     5
   Bias factor          DIISBfac        ....   1.050
   Max. coefficient     DIISMaxC        ....  10.000
 Newton-Raphson         CNVNR           .... off
 SOSCF                  CNVSOSCF        .... off
 Level Shifting         CNVShift        .... on
   Level shift para.    LevelShift      ....    0.2500
   Turn off err/grad.   ShiftErr        ....    0.0010
 Zerner damping         CNVZerner       .... off
 Static damping         CNVDamp         .... on
   Fraction old density DampFac         ....    0.7000
   Max. Damping (<1)    DampMax         ....    0.9800
   Min. Damping (>=0)   DampMin         ....    0.0000
   Turn off err/grad.   DampErr         ....    0.1000
 Fernandez-Rico         CNVRico         .... off

SCF Procedure:
 Maximum # iterations   MaxIter         ....   125
 SCF integral mode      SCFMode         .... Direct
   Integral package                     .... LIBINT
 Reset frequency        DirectResetFreq ....    20
 Integral Threshold     Thresh          ....  1.000e-10 Eh
 Primitive CutOff       TCut            ....  1.000e-11 Eh

Convergence Tolerance:
 Convergence Check Mode ConvCheckMode   .... Total+1el-Energy
 Convergence forced     ConvForced      .... 0
 Energy Change          TolE            ....  1.000e-06 Eh
 1-El. energy change                    ....  1.000e-03 Eh
 DIIS Error             TolErr          ....  1.000e-06


Diagonalization of the overlap matrix:
Smallest eigenvalue                        ... 1.885e-07
Time for diagonalization                   ...    0.145 sec
Threshold for overlap eigenvalues          ... 1.000e-08
Number of eigenvalues below threshold      ... 0
Time for construction of square roots      ...    0.093 sec
Total time needed                          ...    0.242 sec

-------------------
DFT GRID GENERATION
-------------------

General Integration Accuracy     IntAcc      ...  4.670
Radial Grid Type                 RadialGrid  ... Gauss-Chebyshev
Angular Grid (max. acc.)         AngularGrid ... Lebedev-302
Angular grid pruning method      GridPruning ... 3 (G Style)
Weight generation scheme         WeightScheme... Becke
Basis function cutoff            BFCut       ...    1.0000e-10
Integration weight cutoff        WCut        ...    1.0000e-14
Grids for H and He will be reduced by one unit

# of grid points (after initial pruning)     ... 147138 (   0.0 sec)
# of grid points (after weights+screening)   ... 130360 (   0.1 sec)
nearest neighbour list constructed           ...    0.0 sec
Grid point re-assignment to atoms done       ...    0.0 sec
Grid point division into batches done        ...    0.5 sec
Reduced shell lists constructed in    1.0 sec

Total number of grid points                  ...   130360
Total number of batches                      ...     2050
Average number of points per batch           ...       63
Average number of grid points per atom       ...     4656
Average number of shells per batch           ...   197.51 (63.51%)
Average number of basis functions per batch  ...   557.55 (64.16%)
Average number of large shells per batch     ...   155.85 (78.91%)
Average number of large basis fcns per batch ...   436.20 (78.23%)
Average number of aux-shells per batch       ...   197.51 (36.78%)
Average number of aux functions per batch    ...   557.55 (31.81%)
Maximum spatial batch extension              ...   2.13,  2.30,  2.10 au
Average spatial batch extension              ...   0.05,  0.05,  0.05 au

Time for grid setup =    1.163 sec

------------------------------
INITIAL GUESS: MODEL POTENTIAL
------------------------------
Loading Hartree-Fock densities                     ... done
  calling /sw/apps/orca/orca_4_2_0_linux_x86-64_openmpi314/orca TMB28_T1_atom79.inp > TMB28_T1_atom79.out in order to generate an atomic fitting density for atom 24 (Au with ECP) on-the-fly... 
    atom 24 (Au), assumed electronic state with S=2: 1s2 2s2 2p6 3s2 3p6 4s2 3d10 4p6 5s2 4d10 5p6 6s1 4f14 5d10           ... done
Calculating cut-offs                               ... done
Setting up the integral package                    ... done
Initializing the effective Hamiltonian             ... done
Starting the Coulomb interaction                   ... done (   0.1 sec)
Reading the grid                                   ... done
Mapping shells                                     ... done
Starting the XC term evaluation                    ... done (   0.4 sec)
  promolecular density results
     # of electrons  =    219.995963809
     EX              =   -524.396447782
     EC              =     -1.173016285
     EX+EC           =   -525.569464067
Transforming the Hamiltonian                       ... done (   0.1 sec)
Diagonalizing the Hamiltonian                      ... done (   0.1 sec)
Back transforming the eigenvectors                 ... done (   0.0 sec)
Now organizing SCF variables                       ... done
                      ------------------
                      INITIAL GUESS DONE (   3.0 sec)
                      ------------------
--------------
SCF ITERATIONS
--------------
ITER       Energy         Delta-E        Max-DP      RMS-DP      [F,P]     Damp
  0  -2088.5696862496   0.000000000000 6.45741203  0.01442626  0.5262321 0.7000
  1  -2088.4018385153   0.167847734273 5.55175606  0.01234767  0.3968833 0.7000
  2  -2088.5305212230  -0.128682707684 4.71595909  0.01036286  0.2819338 0.7000
                               ***Turning on DIIS***
  3  -2088.7642390382  -0.233717815189 3.57811781  0.00786230  0.1968065 0.7000
  4  -2088.9751744074  -0.210935369231 2.28767441  0.00508870  0.1353243 0.7000
  5  -2089.1001616513  -0.124987243892 4.20235975  0.00948692  0.0920723 0.0000
  6  -2089.1690057633  -0.068844111975 0.22507380  0.00068451  0.0217846 0.0000
  7  -2089.1713325353  -0.002326771954 1.79984348  0.00386847  0.0059959 0.0000
  8  -2089.1715276381  -0.000195102879 0.52008814  0.00122385  0.0029794 0.0000
  9  -2089.1716174719  -0.000089833728 0.94480074  0.00221367  0.0022775 0.0000
 10  -2089.1716493368  -0.000031864960 1.65337208  0.00346448  0.0006832 0.0000
 11  -2089.1716565488  -0.000007211991 0.42581964  0.00091137  0.0005023 0.0000
 12  -2089.1716578878  -0.000001338941 0.34364308  0.00068096  0.0001839 0.0000
 13  -2089.1716581991  -0.000000311353 0.23582731  0.00077443  0.0000725 0.0000
                 **** Energy Check signals convergence ****

               *****************************************************
               *                     SUCCESS                       *
               *           SCF CONVERGED AFTER  14 CYCLES          *
               *****************************************************


----------------
TOTAL SCF ENERGY
----------------

Total Energy       :        -2089.17165826 Eh          -56849.25098 eV

Components:
Nuclear Repulsion  :         1815.71806788 Eh           49408.20049 eV
Electronic Energy  :        -3904.88972614 Eh         -106257.45147 eV
One Electron Energy:        -6543.22959638 Eh         -178050.32922 eV
Two Electron Energy:         2638.33987024 Eh           71792.87775 eV

Virial components:
Potential Energy   :        -4086.23183356 Eh         -111192.02108 eV
Kinetic Energy     :         1997.06017530 Eh           54342.77010 eV
Virial Ratio       :            2.04612354


DFT components:
N(Alpha)           :       80.000109381307 electrons
N(Beta)            :       80.000109381307 electrons
N(Total)           :      160.000218762614 electrons
E(X)               :      -49.478078631204 Eh       
E(C)               :       -3.190947905584 Eh       
E(XC)              :      -52.669026536788 Eh       
DFET-embed. en.    :        0.000000000000 Eh       

---------------
SCF CONVERGENCE
---------------

  Last Energy change         ...   -6.0797e-08  Tolerance :   1.0000e-06
  Last MAX-Density change    ...    4.9908e-01  Tolerance :   1.0000e-05
  Last RMS-Density change    ...    1.1498e-03  Tolerance :   1.0000e-06
  Last DIIS Error            ...    3.6666e-05  Tolerance :   1.0000e-06

             **** THE GBW FILE WAS UPDATED (TMB28_T1.gbw) ****
             **** DENSITY FILE WAS UPDATED (TMB28_T1.scfp) ****
             **** ENERGY FILE WAS UPDATED (TMB28_T1.en.tmp) ****
             **** THE GBW FILE WAS UPDATED (TMB28_T1.gbw) ****
             **** DENSITY FILE WAS UPDATED (TMB28_T1.scfp) ****
----------------
ORBITAL ENERGIES
----------------

  NO   OCC          E(Eh)            E(eV) 
   0   2.0000    -103.616766     -2819.5556 
   1   2.0000    -103.614645     -2819.4978 
   2   2.0000    -103.601201     -2819.1320 
   3   2.0000     -20.162412      -548.6471 
   4   2.0000     -20.109384      -547.2042 
   5   2.0000     -20.082553      -546.4740 
   6   2.0000     -11.065054      -301.0954 
   7   2.0000     -11.008253      -299.5498 
   8   2.0000     -10.997979      -299.2702 
   9   2.0000     -10.975440      -298.6569 
  10   2.0000     -10.937366      -297.6209 
  11   2.0000     -10.912552      -296.9456 
  12   2.0000     -10.896811      -296.5173 
  13   2.0000     -10.879275      -296.0401 
  14   2.0000     -10.877579      -295.9940 
  15   2.0000     -10.132363      -275.7156 
  16   2.0000     -10.130107      -275.6542 
  17   2.0000     -10.116529      -275.2848 
  18   2.0000      -7.705636      -209.6810 
  19   2.0000      -7.703450      -209.6215 
  20   2.0000      -7.702497      -209.5956 
  21   2.0000      -7.702320      -209.5908 
  22   2.0000      -7.700188      -209.5328 
  23   2.0000      -7.699989      -209.5274 
  24   2.0000      -7.689978      -209.2549 
  25   2.0000      -7.686517      -209.1608 
  26   2.0000      -7.686248      -209.1534 
  27   2.0000      -4.648147      -126.4825 
  28   2.0000      -2.730625       -74.3041 
  29   2.0000      -2.729558       -74.2750 
  30   2.0000      -2.714482       -73.8648 
  31   2.0000      -1.421172       -38.6721 
  32   2.0000      -1.324364       -36.0378 
  33   2.0000      -1.310146       -35.6509 
  34   2.0000      -1.077138       -29.3104 
  35   2.0000      -1.018262       -27.7083 
  36   2.0000      -0.972641       -26.4669 
  37   2.0000      -0.964420       -26.2432 
  38   2.0000      -0.953241       -25.9390 
  39   2.0000      -0.944883       -25.7116 
  40   2.0000      -0.936100       -25.4726 
  41   2.0000      -0.914254       -24.8781 
  42   2.0000      -0.857208       -23.3258 
  43   2.0000      -0.797929       -21.7127 
  44   2.0000      -0.751968       -20.4621 
  45   2.0000      -0.701988       -19.1021 
  46   2.0000      -0.674767       -18.3613 
  47   2.0000      -0.665374       -18.1057 
  48   2.0000      -0.639883       -17.4121 
  49   2.0000      -0.625913       -17.0320 
  50   2.0000      -0.610878       -16.6228 
  51   2.0000      -0.598404       -16.2834 
  52   2.0000      -0.592207       -16.1148 
  53   2.0000      -0.581175       -15.8146 
  54   2.0000      -0.577198       -15.7064 
  55   2.0000      -0.567996       -15.4560 
  56   2.0000      -0.562153       -15.2970 
  57   2.0000      -0.555607       -15.1188 
  58   2.0000      -0.553337       -15.0571 
  59   2.0000      -0.548361       -14.9217 
  60   2.0000      -0.541607       -14.7379 
  61   2.0000      -0.540689       -14.7129 
  62   2.0000      -0.527963       -14.3666 
  63   2.0000      -0.524535       -14.2733 
  64   2.0000      -0.522729       -14.2242 
  65   2.0000      -0.507662       -13.8142 
  66   2.0000      -0.492831       -13.4106 
  67   2.0000      -0.485189       -13.2027 
  68   2.0000      -0.477307       -12.9882 
  69   2.0000      -0.443408       -12.0657 
  70   2.0000      -0.427638       -11.6366 
  71   2.0000      -0.417655       -11.3650 
  72   2.0000      -0.406726       -11.0676 
  73   2.0000      -0.399585       -10.8733 
  74   2.0000      -0.387163       -10.5352 
  75   2.0000      -0.369663       -10.0590 
  76   2.0000      -0.364912        -9.9298 
  77   2.0000      -0.364236        -9.9114 
  78   2.0000      -0.359272        -9.7763 
  79   2.0000      -0.350183        -9.5290 
  80   0.0000      -0.068885        -1.8744 
  81   0.0000       0.006086         0.1656 
  82   0.0000       0.019206         0.5226 
  83   0.0000       0.036963         1.0058 
  84   0.0000       0.040920         1.1135 
  85   0.0000       0.042971         1.1693 
  86   0.0000       0.048138         1.3099 
  87   0.0000       0.058759         1.5989 
  88   0.0000       0.060690         1.6515 
  89   0.0000       0.063509         1.7282 
  90   0.0000       0.069351         1.8871 
  91   0.0000       0.071397         1.9428 
  92   0.0000       0.072746         1.9795 
  93   0.0000       0.079036         2.1507 
  94   0.0000       0.082651         2.2490 
  95   0.0000       0.091153         2.4804 
  96   0.0000       0.093444         2.5427 
  97   0.0000       0.096562         2.6276 
  98   0.0000       0.098414         2.6780 
  99   0.0000       0.107046         2.9129 
 100   0.0000       0.111503         3.0342 
 101   0.0000       0.114857         3.1254 
 102   0.0000       0.117418         3.1951 
 103   0.0000       0.121311         3.3010 
 104   0.0000       0.126436         3.4405 
 105   0.0000       0.132626         3.6089 
 106   0.0000       0.134096         3.6489 
 107   0.0000       0.137978         3.7546 
 108   0.0000       0.142384         3.8745 
 109   0.0000       0.145159         3.9500 
 110   0.0000       0.151454         4.1213 
 111   0.0000       0.155628         4.2349 
 112   0.0000       0.163453         4.4478 
 113   0.0000       0.166139         4.5209 
 114   0.0000       0.168652         4.5892 
 115   0.0000       0.171276         4.6607 
 116   0.0000       0.178114         4.8467 
 117   0.0000       0.182951         4.9784 
 118   0.0000       0.190242         5.1767 
 119   0.0000       0.196256         5.3404 
 120   0.0000       0.203990         5.5509 
 121   0.0000       0.205126         5.5818 
 122   0.0000       0.208381         5.6703 
 123   0.0000       0.212037         5.7698 
 124   0.0000       0.217448         5.9171 
 125   0.0000       0.222293         6.0489 
 126   0.0000       0.227120         6.1803 
 127   0.0000       0.234242         6.3740 
 128   0.0000       0.237138         6.4528 
 129   0.0000       0.238310         6.4847 
 130   0.0000       0.244442         6.6516 
 131   0.0000       0.246152         6.6981 
 132   0.0000       0.249756         6.7962 
 133   0.0000       0.253287         6.8923 
 134   0.0000       0.255811         6.9610 
 135   0.0000       0.260334         7.0840 
 136   0.0000       0.265988         7.2379 
 137   0.0000       0.269762         7.3406 
 138   0.0000       0.271825         7.3967 
 139   0.0000       0.277123         7.5409 
 140   0.0000       0.279170         7.5966 
 141   0.0000       0.281725         7.6661 
 142   0.0000       0.285513         7.7692 
 143   0.0000       0.288316         7.8455 
 144   0.0000       0.291436         7.9304 
 145   0.0000       0.291649         7.9362 
 146   0.0000       0.297004         8.0819 
 147   0.0000       0.301033         8.1915 
 148   0.0000       0.302958         8.2439 
 149   0.0000       0.304654         8.2900 
 150   0.0000       0.305453         8.3118 
 151   0.0000       0.307543         8.3687 
 152   0.0000       0.310485         8.4487 
 153   0.0000       0.312292         8.4979 
 154   0.0000       0.316019         8.5993 
 155   0.0000       0.318052         8.6546 
 156   0.0000       0.322626         8.7791 
 157   0.0000       0.324263         8.8236 
 158   0.0000       0.331680         9.0255 
 159   0.0000       0.334497         9.1021 
 160   0.0000       0.338115         9.2006 
 161   0.0000       0.339944         9.2503 
 162   0.0000       0.342525         9.3206 
 163   0.0000       0.345965         9.4142 
 164   0.0000       0.346749         9.4355 
 165   0.0000       0.351003         9.5513 
 166   0.0000       0.354280         9.6405 
 167   0.0000       0.354921         9.6579 
 168   0.0000       0.359691         9.7877 
 169   0.0000       0.366713         9.9788 
 170   0.0000       0.368400        10.0247 
 171   0.0000       0.370517        10.0823 
 172   0.0000       0.372770        10.1436 
 173   0.0000       0.375143        10.2082 
 174   0.0000       0.379507        10.3269 
 175   0.0000       0.381455        10.3799 
 176   0.0000       0.384699        10.4682 
 177   0.0000       0.388101        10.5608 
 178   0.0000       0.392653        10.6846 
 179   0.0000       0.396077        10.7778 
 180   0.0000       0.398027        10.8309 
 181   0.0000       0.399660        10.8753 
 182   0.0000       0.402223        10.9450 
 183   0.0000       0.409233        11.1358 
 184   0.0000       0.412360        11.2209 
 185   0.0000       0.416059        11.3215 
 186   0.0000       0.416267        11.3272 
 187   0.0000       0.419109        11.4045 
 188   0.0000       0.422748        11.5036 
 189   0.0000       0.426840        11.6149 
 190   0.0000       0.428097        11.6491 
 191   0.0000       0.431949        11.7539 
 192   0.0000       0.434997        11.8369 
 193   0.0000       0.442094        12.0300 
 194   0.0000       0.446061        12.1379 
 195   0.0000       0.448868        12.2143 
 196   0.0000       0.453145        12.3307 
 197   0.0000       0.454312        12.3625 
 198   0.0000       0.458572        12.4784 
 199   0.0000       0.461419        12.5558 
 200   0.0000       0.464293        12.6341 
 201   0.0000       0.470667        12.8075 
 202   0.0000       0.475594        12.9416 
 203   0.0000       0.480725        13.0812 
 204   0.0000       0.487789        13.2734 
 205   0.0000       0.488888        13.3033 
 206   0.0000       0.491772        13.3818 
 207   0.0000       0.494669        13.4606 
 208   0.0000       0.500988        13.6326 
 209   0.0000       0.505106        13.7446 
 210   0.0000       0.507604        13.8126 
 211   0.0000       0.513516        13.9735 
 212   0.0000       0.516511        14.0550 
 213   0.0000       0.519892        14.1470 
 214   0.0000       0.522092        14.2069 
 215   0.0000       0.528684        14.3862 
 216   0.0000       0.534052        14.5323 
 217   0.0000       0.539143        14.6708 
 218   0.0000       0.545423        14.8417 
 219   0.0000       0.545886        14.8543 
 220   0.0000       0.548489        14.9251 
 221   0.0000       0.554607        15.0916 
 222   0.0000       0.558843        15.2069 
 223   0.0000       0.561382        15.2760 
 224   0.0000       0.565713        15.3938 
 225   0.0000       0.567916        15.4538 
 226   0.0000       0.572349        15.5744 
 227   0.0000       0.579884        15.7794 
 228   0.0000       0.591622        16.0988 
 229   0.0000       0.592086        16.1115 
 230   0.0000       0.593933        16.1617 
 231   0.0000       0.598574        16.2880 
 232   0.0000       0.605956        16.4889 
 233   0.0000       0.608232        16.5508 
 234   0.0000       0.613542        16.6953 
 235   0.0000       0.616979        16.7888 
 236   0.0000       0.622898        16.9499 
 237   0.0000       0.629847        17.1390 
 238   0.0000       0.632999        17.2248 
 239   0.0000       0.639282        17.3958 
 240   0.0000       0.642717        17.4892 
 241   0.0000       0.645906        17.5760 
 242   0.0000       0.650832        17.7100 
 243   0.0000       0.655866        17.8470 
 244   0.0000       0.659176        17.9371 
 245   0.0000       0.662747        18.0343 
 246   0.0000       0.669425        18.2160 
 247   0.0000       0.673687        18.3319 
 248   0.0000       0.676682        18.4134 
 249   0.0000       0.681167        18.5355 
 250   0.0000       0.683403        18.5963 
 251   0.0000       0.690295        18.7839 
 252   0.0000       0.696823        18.9615 
 253   0.0000       0.701568        19.0906 
 254   0.0000       0.704479        19.1699 
 255   0.0000       0.709984        19.3196 
 256   0.0000       0.714744        19.4492 
 257   0.0000       0.717365        19.5205 
 258   0.0000       0.718178        19.5426 
 259   0.0000       0.726266        19.7627 
 260   0.0000       0.730323        19.8731 
 261   0.0000       0.732087        19.9211 
 262   0.0000       0.734322        19.9819 
 263   0.0000       0.736665        20.0457 
 264   0.0000       0.742417        20.2022 
 265   0.0000       0.746696        20.3186 
 266   0.0000       0.751461        20.4483 
 267   0.0000       0.753246        20.4969 
 268   0.0000       0.756602        20.5882 
 269   0.0000       0.761303        20.7161 
 270   0.0000       0.765057        20.8183 
 271   0.0000       0.771217        20.9859 
 272   0.0000       0.772379        21.0175 
 273   0.0000       0.775297        21.0969 
 274   0.0000       0.777278        21.1508 
 275   0.0000       0.779772        21.2187 
 276   0.0000       0.787145        21.4193 
 277   0.0000       0.788586        21.4585 
 278   0.0000       0.790787        21.5184 
 279   0.0000       0.795353        21.6427 
 280   0.0000       0.796011        21.6605 
 281   0.0000       0.804704        21.8971 
 282   0.0000       0.807123        21.9629 
 283   0.0000       0.809919        22.0390 
 284   0.0000       0.815947        22.2031 
 285   0.0000       0.816527        22.2188 
 286   0.0000       0.817555        22.2468 
 287   0.0000       0.823261        22.4021 
 288   0.0000       0.825194        22.4547 
 289   0.0000       0.834945        22.7200 
 290   0.0000       0.836970        22.7751 
 291   0.0000       0.841440        22.8967 
 292   0.0000       0.845223        22.9997 
 293   0.0000       0.848496        23.0887 
 294   0.0000       0.854493        23.2519 
 295   0.0000       0.860967        23.4281 
 296   0.0000       0.863898        23.5079 
 297   0.0000       0.866900        23.5895 
 298   0.0000       0.874121        23.7860 
 299   0.0000       0.876804        23.8590 
 300   0.0000       0.879794        23.9404 
 301   0.0000       0.886473        24.1222 
 302   0.0000       0.888541        24.1784 
 303   0.0000       0.893672        24.3180 
 304   0.0000       0.895084        24.3565 
 305   0.0000       0.904239        24.6056 
 306   0.0000       0.907099        24.6834 
 307   0.0000       0.916924        24.9508 
 308   0.0000       0.927843        25.2479 
 309   0.0000       0.931219        25.3398 
 310   0.0000       0.933512        25.4022 
 311   0.0000       0.935436        25.4545 
 312   0.0000       0.948647        25.8140 
 313   0.0000       0.955090        25.9893 
 314   0.0000       0.962026        26.1781 
 315   0.0000       0.963124        26.2079 
 316   0.0000       0.966743        26.3064 
 317   0.0000       0.973000        26.4767 
 318   0.0000       0.976811        26.5804 
 319   0.0000       0.984895        26.8004 
 320   0.0000       0.993273        27.0283 
 321   0.0000       1.003135        27.2967 
 322   0.0000       1.004677        27.3387 
 323   0.0000       1.015031        27.6204 
 324   0.0000       1.018550        27.7162 
 325   0.0000       1.022076        27.8121 
 326   0.0000       1.030134        28.0314 
 327   0.0000       1.031425        28.0665 
 328   0.0000       1.035437        28.1757 
 329   0.0000       1.047328        28.4993 
 330   0.0000       1.053287        28.6614 
 331   0.0000       1.057167        28.7670 
 332   0.0000       1.071571        29.1589 
 333   0.0000       1.083121        29.4732 
 334   0.0000       1.087202        29.5843 
 335   0.0000       1.094655        29.7871 
 336   0.0000       1.099196        29.9106 
 337   0.0000       1.102717        30.0065 
 338   0.0000       1.114998        30.3406 
 339   0.0000       1.120277        30.4843 
 340   0.0000       1.125651        30.6305 
 341   0.0000       1.131090        30.7785 
 342   0.0000       1.140828        31.0435 
 343   0.0000       1.145590        31.1731 
 344   0.0000       1.158390        31.5214 
 345   0.0000       1.162389        31.6302 
 346   0.0000       1.169700        31.8292 
 347   0.0000       1.176985        32.0274 
 348   0.0000       1.181703        32.1558 
 349   0.0000       1.192769        32.4569 
 350   0.0000       1.201729        32.7007 
 351   0.0000       1.210470        32.9386 
 352   0.0000       1.215725        33.0816 
 353   0.0000       1.220564        33.2132 
 354   0.0000       1.235096        33.6087 
 355   0.0000       1.245053        33.8796 
 356   0.0000       1.247268        33.9399 
 357   0.0000       1.260156        34.2906 
 358   0.0000       1.274173        34.6720 
 359   0.0000       1.277433        34.7607 
 360   0.0000       1.288017        35.0487 
 361   0.0000       1.296505        35.2797 
 362   0.0000       1.305432        35.5226 
 363   0.0000       1.309759        35.6404 
 364   0.0000       1.315791        35.8045 
 365   0.0000       1.323012        36.0010 
 366   0.0000       1.328252        36.1436 
 367   0.0000       1.338065        36.4106 
 368   0.0000       1.345837        36.6221 
 369   0.0000       1.353245        36.8237 
 370   0.0000       1.357773        36.9469 
 371   0.0000       1.363551        37.1041 
 372   0.0000       1.366394        37.1815 
 373   0.0000       1.379903        37.5491 
 374   0.0000       1.380594        37.5679 
 375   0.0000       1.385641        37.7052 
 376   0.0000       1.398697        38.0605 
 377   0.0000       1.400907        38.1206 
 378   0.0000       1.405674        38.2503 
 379   0.0000       1.414972        38.5033 
 380   0.0000       1.418844        38.6087 
 381   0.0000       1.427614        38.8474 
 382   0.0000       1.433453        39.0062 
 383   0.0000       1.440122        39.1877 
 384   0.0000       1.445742        39.3406 
 385   0.0000       1.459402        39.7123 
 386   0.0000       1.464380        39.8478 
 387   0.0000       1.469849        39.9966 
 388   0.0000       1.473543        40.0971 
 389   0.0000       1.478223        40.2245 
 390   0.0000       1.489607        40.5343 
 391   0.0000       1.496338        40.7174 
 392   0.0000       1.502959        40.8976 
 393   0.0000       1.508205        41.0403 
 394   0.0000       1.512684        41.1622 
 395   0.0000       1.532757        41.7084 
 396   0.0000       1.539857        41.9016 
 397   0.0000       1.551495        42.2183 
 398   0.0000       1.561373        42.4871 
 399   0.0000       1.564022        42.5592 
 400   0.0000       1.577126        42.9158 
 401   0.0000       1.585802        43.1519 
 402   0.0000       1.598381        43.4942 
 403   0.0000       1.611847        43.8606 
 404   0.0000       1.617355        44.0105 
 405   0.0000       1.623650        44.1818 
 406   0.0000       1.626250        44.2525 
 407   0.0000       1.645003        44.7628 
 408   0.0000       1.650053        44.9002 
 409   0.0000       1.656471        45.0749 
 410   0.0000       1.665618        45.3238 
 411   0.0000       1.681674        45.7607 
 412   0.0000       1.700131        46.2629 
 413   0.0000       1.702527        46.3281 
 414   0.0000       1.714956        46.6663 
 415   0.0000       1.716840        46.7176 
 416   0.0000       1.726401        46.9778 
 417   0.0000       1.735724        47.2314 
 418   0.0000       1.743051        47.4308 
 419   0.0000       1.745092        47.4864 
 420   0.0000       1.750157        47.6242 
 421   0.0000       1.765261        48.0352 
 422   0.0000       1.774748        48.2933 
 423   0.0000       1.777328        48.3635 
 424   0.0000       1.784080        48.5473 
 425   0.0000       1.790486        48.7216 
 426   0.0000       1.800343        48.9898 
 427   0.0000       1.805436        49.1284 
 428   0.0000       1.808863        49.2217 
 429   0.0000       1.810183        49.2576 
 430   0.0000       1.821234        49.5583 
 431   0.0000       1.833471        49.8913 
 432   0.0000       1.842222        50.1294 
 433   0.0000       1.846080        50.2344 
 434   0.0000       1.858167        50.5633 
 435   0.0000       1.864652        50.7398 
 436   0.0000       1.876332        51.0576 
 437   0.0000       1.884927        51.2915 
 438   0.0000       1.902561        51.7713 
 439   0.0000       1.922251        52.3071 
 440   0.0000       1.927657        52.4542 
 441   0.0000       1.931197        52.5505 
 442   0.0000       1.961934        53.3869 
 443   0.0000       1.966905        53.5222 
 444   0.0000       1.970765        53.6272 
 445   0.0000       1.983473        53.9730 
 446   0.0000       1.993400        54.2432 
 447   0.0000       2.017252        54.8922 
 448   0.0000       2.021078        54.9963 
 449   0.0000       2.045800        55.6690 
 450   0.0000       2.051347        55.8200 
 451   0.0000       2.079303        56.5807 
 452   0.0000       2.084270        56.7159 
 453   0.0000       2.090172        56.8765 
 454   0.0000       2.110277        57.4235 
 455   0.0000       2.128184        57.9108 
 456   0.0000       2.144873        58.3650 
 457   0.0000       2.147576        58.4385 
 458   0.0000       2.158869        58.7458 
 459   0.0000       2.167654        58.9849 
 460   0.0000       2.180682        59.3394 
 461   0.0000       2.187799        59.5330 
 462   0.0000       2.196612        59.7729 
 463   0.0000       2.203712        59.9660 
 464   0.0000       2.205115        60.0042 
 465   0.0000       2.215614        60.2899 
 466   0.0000       2.221698        60.4555 
 467   0.0000       2.229280        60.6618 
 468   0.0000       2.240337        60.9627 
 469   0.0000       2.241703        60.9998 
 470   0.0000       2.249774        61.2195 
 471   0.0000       2.251699        61.2718 
 472   0.0000       2.255796        61.3833 
 473   0.0000       2.262683        61.5707 
 474   0.0000       2.271521        61.8112 
 475   0.0000       2.274167        61.8832 
 476   0.0000       2.286584        62.2211 
 477   0.0000       2.295031        62.4510 
 478   0.0000       2.299685        62.5776 
 479   0.0000       2.306797        62.7711 
 480   0.0000       2.311609        62.9021 
 481   0.0000       2.315786        63.0158 
 482   0.0000       2.323082        63.2143 
 483   0.0000       2.333696        63.5031 
 484   0.0000       2.338228        63.6264 
 485   0.0000       2.345355        63.8204 
 486   0.0000       2.353512        64.0423 
 487   0.0000       2.354533        64.0701 
 488   0.0000       2.355807        64.1048 
 489   0.0000       2.357478        64.1502 
 490   0.0000       2.372307        64.5538 
 491   0.0000       2.382172        64.8222 
 492   0.0000       2.389009        65.0082 
 493   0.0000       2.396567        65.2139 
 494   0.0000       2.400316        65.3159 
 495   0.0000       2.406468        65.4833 
 496   0.0000       2.410619        65.5963 
 497   0.0000       2.426542        66.0296 
 498   0.0000       2.440607        66.4123 
 499   0.0000       2.444726        66.5244 
 500   0.0000       2.451443        66.7072 
 501   0.0000       2.473297        67.3018 
 502   0.0000       2.479115        67.4601 
 503   0.0000       2.484315        67.6016 
 504   0.0000       2.493827        67.8605 
 505   0.0000       2.505862        68.1880 
 506   0.0000       2.510526        68.3149 
 507   0.0000       2.517682        68.5096 
 508   0.0000       2.526972        68.7624 
 509   0.0000       2.543532        69.2130 
 510   0.0000       2.560618        69.6780 
 511   0.0000       2.567832        69.8743 
 512   0.0000       2.575242        70.0759 
 513   0.0000       2.599587        70.7384 
 514   0.0000       2.613780        71.1246 
 515   0.0000       2.616177        71.1898 
 516   0.0000       2.640774        71.8591 
 517   0.0000       2.645445        71.9862 
 518   0.0000       2.658942        72.3535 
 519   0.0000       2.671811        72.7037 
 520   0.0000       2.684819        73.0576 
 521   0.0000       2.702096        73.5278 
 522   0.0000       2.703374        73.5625 
 523   0.0000       2.712961        73.8234 
 524   0.0000       2.744203        74.6736 
 525   0.0000       2.750479        74.8443 
 526   0.0000       2.758058        75.0506 
 527   0.0000       2.774790        75.5059 
 528   0.0000       2.782036        75.7030 
 529   0.0000       2.793370        76.0115 
 530   0.0000       2.801600        76.2354 
 531   0.0000       2.810615        76.4807 
 532   0.0000       2.820589        76.7521 
 533   0.0000       2.836390        77.1821 
 534   0.0000       2.842859        77.3581 
 535   0.0000       2.844413        77.4004 
 536   0.0000       2.860635        77.8418 
 537   0.0000       2.866705        78.0070 
 538   0.0000       2.881723        78.4157 
 539   0.0000       2.900821        78.9354 
 540   0.0000       2.909487        79.1712 
 541   0.0000       2.931351        79.7661 
 542   0.0000       2.945694        80.1564 
 543   0.0000       2.946260        80.1718 
 544   0.0000       2.960971        80.5721 
 545   0.0000       2.982494        81.1578 
 546   0.0000       2.985239        81.2325 
 547   0.0000       2.992196        81.4218 
 548   0.0000       3.000657        81.6520 
 549   0.0000       3.011621        81.9504 
 550   0.0000       3.019265        82.1584 
 551   0.0000       3.030980        82.4771 
 552   0.0000       3.051729        83.0418 
 553   0.0000       3.056101        83.1607 
 554   0.0000       3.073099        83.6233 
 555   0.0000       3.079186        83.7889 
 556   0.0000       3.086454        83.9867 
 557   0.0000       3.092127        84.1411 
 558   0.0000       3.102360        84.4195 
 559   0.0000       3.118676        84.8635 
 560   0.0000       3.120517        84.9136 
 561   0.0000       3.140917        85.4687 
 562   0.0000       3.141066        85.4728 
 563   0.0000       3.147894        85.6585 
 564   0.0000       3.157030        85.9071 
 565   0.0000       3.170469        86.2729 
 566   0.0000       3.181690        86.5782 
 567   0.0000       3.195426        86.9520 
 568   0.0000       3.202332        87.1399 
 569   0.0000       3.214790        87.4789 
 570   0.0000       3.217249        87.5458 
 571   0.0000       3.225530        87.7711 
 572   0.0000       3.231231        87.9263 
 573   0.0000       3.247011        88.3557 
 574   0.0000       3.258453        88.6670 
 575   0.0000       3.269384        88.9645 
 576   0.0000       3.274006        89.0902 
 577   0.0000       3.286630        89.4337 
 578   0.0000       3.295437        89.6734 
 579   0.0000       3.299660        89.7883 
 580   0.0000       3.309431        90.0542 
 581   0.0000       3.312782        90.1454 
 582   0.0000       3.323474        90.4363 
 583   0.0000       3.340752        90.9065 
 584   0.0000       3.344964        91.0211 
 585   0.0000       3.347459        91.0890 
 586   0.0000       3.358300        91.3840 
 587   0.0000       3.373616        91.8008 
 588   0.0000       3.392021        92.3016 
 589   0.0000       3.393977        92.3548 
 590   0.0000       3.399330        92.5005 
 591   0.0000       3.417267        92.9886 
 592   0.0000       3.421528        93.1045 
 593   0.0000       3.437970        93.5519 
 594   0.0000       3.444428        93.7276 
 595   0.0000       3.451537        93.9211 
 596   0.0000       3.459033        94.1251 
 597   0.0000       3.480236        94.7020 
 598   0.0000       3.486957        94.8849 
 599   0.0000       3.496738        95.1511 
 600   0.0000       3.505128        95.3794 
 601   0.0000       3.509788        95.5062 
 602   0.0000       3.522763        95.8592 
 603   0.0000       3.534512        96.1790 
 604   0.0000       3.537166        96.2512 
 605   0.0000       3.546164        96.4960 
 606   0.0000       3.548337        96.5552 
 607   0.0000       3.555311        96.7449 
 608   0.0000       3.568660        97.1082 
 609   0.0000       3.569804        97.1393 
 610   0.0000       3.580320        97.4255 
 611   0.0000       3.585217        97.5587 
 612   0.0000       3.609083        98.2081 
 613   0.0000       3.619993        98.5050 
 614   0.0000       3.629130        98.7537 
 615   0.0000       3.641304        99.0849 
 616   0.0000       3.651646        99.3663 
 617   0.0000       3.657535        99.5266 
 618   0.0000       3.666425        99.7685 
 619   0.0000       3.676262       100.0362 
 620   0.0000       3.688506       100.3694 
 621   0.0000       3.693625       100.5086 
 622   0.0000       3.703715       100.7832 
 623   0.0000       3.714859       101.0865 
 624   0.0000       3.718573       101.1875 
 625   0.0000       3.725862       101.3859 
 626   0.0000       3.733456       101.5925 
 627   0.0000       3.738447       101.7283 
 628   0.0000       3.753995       102.1514 
 629   0.0000       3.759307       102.2959 
 630   0.0000       3.766927       102.5033 
 631   0.0000       3.776701       102.7693 
 632   0.0000       3.781870       102.9099 
 633   0.0000       3.792267       103.1928 
 634   0.0000       3.810802       103.6972 
 635   0.0000       3.821416       103.9860 
 636   0.0000       3.826879       104.1347 
 637   0.0000       3.837234       104.4164 
 638   0.0000       3.844219       104.6065 
 639   0.0000       3.851949       104.8169 
 640   0.0000       3.860118       105.0392 
 641   0.0000       3.875455       105.4565 
 642   0.0000       3.882147       105.6386 
 643   0.0000       3.903890       106.2303 
 644   0.0000       3.919036       106.6424 
 645   0.0000       3.931132       106.9715 
 646   0.0000       3.938518       107.1725 
 647   0.0000       3.946174       107.3809 
 648   0.0000       3.952998       107.5665 
 649   0.0000       3.973625       108.1278 
 650   0.0000       3.985742       108.4576 
 651   0.0000       4.017642       109.3256 
 652   0.0000       4.020096       109.3924 
 653   0.0000       4.027333       109.5893 
 654   0.0000       4.040718       109.9535 
 655   0.0000       4.065283       110.6220 
 656   0.0000       4.073779       110.8532 
 657   0.0000       4.079014       110.9956 
 658   0.0000       4.089807       111.2893 
 659   0.0000       4.093653       111.3940 
 660   0.0000       4.107112       111.7602 
 661   0.0000       4.118591       112.0726 
 662   0.0000       4.125734       112.2669 
 663   0.0000       4.144854       112.7872 
 664   0.0000       4.160101       113.2021 
 665   0.0000       4.168281       113.4247 
 666   0.0000       4.185334       113.8887 
 667   0.0000       4.193087       114.0997 
 668   0.0000       4.205809       114.4459 
 669   0.0000       4.216841       114.7461 
 670   0.0000       4.226303       115.0036 
 671   0.0000       4.232987       115.1854 
 672   0.0000       4.238153       115.3260 
 673   0.0000       4.249433       115.6330 
 674   0.0000       4.269448       116.1776 
 675   0.0000       4.276063       116.3576 
 676   0.0000       4.289586       116.7256 
 677   0.0000       4.290071       116.7388 
 678   0.0000       4.302993       117.0904 
 679   0.0000       4.310230       117.2873 
 680   0.0000       4.313187       117.3678 
 681   0.0000       4.318660       117.5167 
 682   0.0000       4.326913       117.7413 
 683   0.0000       4.332607       117.8962 
 684   0.0000       4.338080       118.0451 
 685   0.0000       4.347860       118.3113 
 686   0.0000       4.358496       118.6007 
 687   0.0000       4.362460       118.7086 
 688   0.0000       4.365287       118.7855 
 689   0.0000       4.376571       119.0926 
 690   0.0000       4.382582       119.2561 
 691   0.0000       4.384429       119.3064 
 692   0.0000       4.398203       119.6812 
 693   0.0000       4.409823       119.9974 
 694   0.0000       4.411849       120.0525 
 695   0.0000       4.418983       120.2466 
 696   0.0000       4.427437       120.4767 
 697   0.0000       4.443322       120.9089 
 698   0.0000       4.455021       121.2273 
 699   0.0000       4.465607       121.5154 
 700   0.0000       4.472710       121.7086 
 701   0.0000       4.482745       121.9817 
 702   0.0000       4.487780       122.1187 
 703   0.0000       4.495489       122.3285 
 704   0.0000       4.524748       123.1247 
 705   0.0000       4.536539       123.4455 
 706   0.0000       4.543606       123.6378 
 707   0.0000       4.571163       124.3877 
 708   0.0000       4.574930       124.4902 
 709   0.0000       4.588772       124.8668 
 710   0.0000       4.601265       125.2068 
 711   0.0000       4.624324       125.8343 
 712   0.0000       4.628994       125.9613 
 713   0.0000       4.640899       126.2853 
 714   0.0000       4.648073       126.4805 
 715   0.0000       4.668591       127.0388 
 716   0.0000       4.690183       127.6264 
 717   0.0000       4.692648       127.6934 
 718   0.0000       4.716039       128.3299 
 719   0.0000       4.734358       128.8284 
 720   0.0000       4.740282       128.9896 
 721   0.0000       4.741690       129.0280 
 722   0.0000       4.764842       129.6579 
 723   0.0000       4.810381       130.8971 
 724   0.0000       4.819250       131.1385 
 725   0.0000       4.830252       131.4378 
 726   0.0000       4.853558       132.0720 
 727   0.0000       4.879798       132.7861 
 728   0.0000       4.906021       133.4996 
 729   0.0000       4.934135       134.2646 
 730   0.0000       4.954459       134.8177 
 731   0.0000       4.984945       135.6473 
 732   0.0000       4.989632       135.7748 
 733   0.0000       4.996891       135.9723 
 734   0.0000       5.008433       136.2864 
 735   0.0000       5.022414       136.6668 
 736   0.0000       5.042602       137.2162 
 737   0.0000       5.053629       137.5162 
 738   0.0000       5.064852       137.8216 
 739   0.0000       5.072930       138.0414 
 740   0.0000       5.075182       138.1027 
 741   0.0000       5.092299       138.5685 
 742   0.0000       5.110625       139.0672 
 743   0.0000       5.124520       139.4453 
 744   0.0000       5.175066       140.8207 
 745   0.0000       5.190350       141.2366 
 746   0.0000       5.236514       142.4928 
 747   0.0000       5.242458       142.6545 
 748   0.0000       5.288858       143.9171 
 749   0.0000       5.307643       144.4283 
 750   0.0000       5.315817       144.6507 
 751   0.0000       5.344173       145.4223 
 752   0.0000       5.356315       145.7527 
 753   0.0000       5.371262       146.1595 
 754   0.0000       5.374170       146.2386 
 755   0.0000       5.395686       146.8241 
 756   0.0000       5.408055       147.1607 
 757   0.0000       5.430806       147.7798 
 758   0.0000       5.443230       148.1178 
 759   0.0000       5.448638       148.2650 
 760   0.0000       5.482260       149.1799 
 761   0.0000       5.486424       149.2932 
 762   0.0000       5.503151       149.7484 
 763   0.0000       5.508348       149.8898 
 764   0.0000       5.518193       150.1577 
 765   0.0000       5.528698       150.4435 
 766   0.0000       5.533859       150.5840 
 767   0.0000       5.557268       151.2209 
 768   0.0000       5.570791       151.5889 
 769   0.0000       5.589610       152.1010 
 770   0.0000       5.608686       152.6201 
 771   0.0000       5.627178       153.1233 
 772   0.0000       5.632979       153.2811 
 773   0.0000       5.649803       153.7390 
 774   0.0000       5.674754       154.4179 
 775   0.0000       5.679362       154.5433 
 776   0.0000       5.682360       154.6249 
 777   0.0000       5.707255       155.3023 
 778   0.0000       5.723424       155.7423 
 779   0.0000       5.734103       156.0329 
 780   0.0000       5.751602       156.5091 
 781   0.0000       5.788656       157.5173 
 782   0.0000       5.803052       157.9091 
 783   0.0000       5.826046       158.5348 
 784   0.0000       5.836261       158.8127 
 785   0.0000       5.856304       159.3581 
 786   0.0000       5.874205       159.8452 
 787   0.0000       5.900086       160.5495 
 788   0.0000       5.906379       160.7208 
 789   0.0000       5.927084       161.2841 
 790   0.0000       5.938533       161.5957 
 791   0.0000       5.956236       162.0774 
 792   0.0000       5.966713       162.3625 
 793   0.0000       5.980317       162.7327 
 794   0.0000       5.997571       163.2022 
 795   0.0000       5.999733       163.2610 
 796   0.0000       6.006356       163.4413 
 797   0.0000       6.064435       165.0217 
 798   0.0000       6.117082       166.4543 
 799   0.0000       6.146871       167.2649 
 800   0.0000       6.307269       171.6295 
 801   0.0000       6.359334       173.0463 
 802   0.0000       6.472276       176.1196 
 803   0.0000       6.572129       178.8367 
 804   0.0000       6.635715       180.5670 
 805   0.0000       6.684797       181.9026 
 806   0.0000       6.791863       184.8160 
 807   0.0000       6.847244       186.3230 
 808   0.0000       6.910725       188.0504 
 809   0.0000       6.922922       188.3823 
 810   0.0000       6.937505       188.7791 
 811   0.0000       7.039903       191.5655 
 812   0.0000       7.072612       192.4556 
 813   0.0000       7.133112       194.1018 
 814   0.0000       7.182085       195.4345 
 815   0.0000       7.197729       195.8602 
 816   0.0000       7.260451       197.5669 
 817   0.0000       7.336877       199.6466 
 818   0.0000       7.346271       199.9022 
 819   0.0000       7.502902       204.1643 
 820   0.0000       7.571053       206.0188 
 821   0.0000       7.589571       206.5227 
 822   0.0000       7.623719       207.4519 
 823   0.0000       7.843006       213.4190 
 824   0.0000       7.932083       215.8429 
 825   0.0000       8.582478       233.5411 
 826   0.0000       8.598903       233.9880 
 827   0.0000       8.609623       234.2797 
 828   0.0000       8.617068       234.4823 
 829   0.0000       8.619303       234.5432 
 830   0.0000       8.627578       234.7683 
 831   0.0000       8.643346       235.1974 
 832   0.0000       8.649955       235.3772 
 833   0.0000       8.666844       235.8368 
 834   0.0000       8.686820       236.3804 
 835   0.0000       8.692365       236.5313 
 836   0.0000       8.706299       236.9105 
 837   0.0000       8.747260       238.0251 
 838   0.0000       8.755305       238.2440 
 839   0.0000       8.781979       238.9698 
 840   0.0000      11.382670       309.7382 
 841   0.0000      11.416770       310.6661 
 842   0.0000      11.462635       311.9141 
 843   0.0000      11.496452       312.8344 
 844   0.0000      11.553471       314.3859 
 845   0.0000      11.563025       314.6459 
 846   0.0000      11.664926       317.4188 
 847   0.0000      11.689597       318.0901 
 848   0.0000      11.714042       318.7553 
 849   0.0000      23.762209       646.6026 
 850   0.0000      23.909260       650.6040 
 851   0.0000      24.159896       657.4242 
 852   0.0000      24.270344       660.4296 
 853   0.0000      24.345085       662.4634 
 854   0.0000      24.423678       664.6021 
 855   0.0000      24.513954       667.0586 
 856   0.0000      24.580371       668.8659 
 857   0.0000      24.659712       671.0249 
 858   0.0000      26.401956       718.4338 
 859   0.0000      26.453276       719.8302 
 860   0.0000      26.922352       732.5944 
 861   0.0000      32.016449       871.2119 
 862   0.0000      32.633442       888.0011 
 863   0.0000      34.164812       929.6718 
 864   0.0000      45.087326      1226.8885 
 865   0.0000      45.345554      1233.9153 
 866   0.0000      45.468747      1237.2675 
 867   0.0000      45.707274      1243.7581 
 868   0.0000     203.669526      5542.1296 

                    ********************************
                    * MULLIKEN POPULATION ANALYSIS *
                    ********************************

-----------------------
MULLIKEN ATOMIC CHARGES
-----------------------
   0 C :   -0.612217
   1 C :    0.794046
   2 C :   -0.884043
   3 H :    0.048496
   4 H :    0.150315
   5 H :    0.155499
   6 C :    3.407390
   7 O :   -0.465020
   8 C :    0.767320
   9 O :   -0.602708
  10 C :   -0.067388
  11 O :   -0.540680
  12 C :   -0.395188
  13 H :    0.138604
  14 H :    0.057665
  15 H :    0.092530
  16 C :   -0.558285
  17 H :    0.110649
  18 H :    0.104732
  19 H :    0.116967
  20 C :   -0.782206
  21 H :    0.066565
  22 H :    0.081691
  23 H :    0.120798
  24 Au:    0.325276
  25 Cl:   -0.587440
  26 Cl:   -0.479382
  27 Cl:   -0.563986
Sum of atomic charges:   -0.0000000

--------------------------------
MULLIKEN REDUCED ORBITAL CHARGES
--------------------------------
  0 C s       :     4.672872  s :     4.672872
      pz      :     0.995801  p :     2.359865
      px      :     0.757432
      py      :     0.606632
      dz2     :    -0.034705  d :    -0.430392
      dxz     :    -0.059596
      dyz     :    -0.024307
      dx2y2   :    -0.043739
      dxy     :    -0.268045
      f0      :     0.001676  f :     0.009872
      f+1     :     0.000610
      f-1     :     0.001277
      f+2     :     0.000806
      f-2     :     0.001672
      f+3     :     0.001857
      f-3     :     0.001974
  1 C s       :     3.384633  s :     3.384633
      pz      :     1.186336  p :     1.955508
      px      :     0.084864
      py      :     0.684308
      dz2     :     0.001742  d :    -0.145673
      dxz     :    -0.060482
      dyz     :     0.037403
      dx2y2   :    -0.166249
      dxy     :     0.041911
      f0      :     0.001824  f :     0.011487
      f+1     :     0.000829
      f-1     :     0.001118
      f+2     :     0.000457
      f-2     :     0.002094
      f+3     :     0.002668
      f-3     :     0.002498
  2 C s       :     3.427082  s :     3.427082
      pz      :     1.150811  p :     3.365938
      px      :     1.158110
      py      :     1.057017
      dz2     :     0.023775  d :     0.086931
      dxz     :     0.022954
      dyz     :     0.011640
      dx2y2   :     0.014103
      dxy     :     0.014457
      f0      :     0.000257  f :     0.004092
      f+1     :     0.000655
      f-1     :     0.000478
      f+2     :     0.000614
      f-2     :     0.000444
      f+3     :     0.000693
      f-3     :     0.000950
  3 H s       :     0.921723  s :     0.921723
      pz      :     0.007513  p :     0.027818
      px      :     0.020895
      py      :    -0.000590
      dz2     :     0.000176  d :     0.001963
      dxz     :     0.000559
      dyz     :     0.000139
      dx2y2   :     0.000608
      dxy     :     0.000481
  4 H s       :     0.826783  s :     0.826783
      pz      :     0.010761  p :     0.020929
      px      :     0.006209
      py      :     0.003959
      dz2     :     0.000610  d :     0.001973
      dxz     :     0.000432
      dyz     :     0.000473
      dx2y2   :     0.000231
      dxy     :     0.000227
  5 H s       :     0.827947  s :     0.827947
      pz      :     0.006495  p :     0.014582
      px      :     0.003131
      py      :     0.004956
      dz2     :     0.000607  d :     0.001972
      dxz     :     0.000391
      dyz     :     0.000379
      dx2y2   :     0.000346
      dxy     :     0.000248
  6 C s       :     1.417448  s :     1.417448
      pz      :     0.316305  p :     1.192986
      px      :     0.272976
      py      :     0.603705
      dz2     :     0.102185  d :    -0.032142
      dxz     :     0.004709
      dyz     :    -0.048399
      dx2y2   :    -0.045374
      dxy     :    -0.045262
      f0      :     0.001771  f :     0.014318
      f+1     :     0.002564
      f-1     :     0.001665
      f+2     :     0.001880
      f-2     :     0.002236
      f+3     :     0.002506
      f-3     :     0.001696
  7 O s       :     3.898625  s :     3.898625
      pz      :     1.699447  p :     4.531689
      px      :     1.354410
      py      :     1.477833
      dz2     :     0.004401  d :     0.032507
      dxz     :     0.006622
      dyz     :     0.008361
      dx2y2   :     0.012668
      dxy     :     0.000455
      f0      :     0.000258  f :     0.002199
      f+1     :     0.000211
      f-1     :     0.000236
      f+2     :     0.000361
      f-2     :     0.000266
      f+3     :     0.000464
      f-3     :     0.000403
  8 C s       :     3.078498  s :     3.078498
      pz      :     0.617708  p :     1.879457
      px      :     0.691230
      py      :     0.570519
      dz2     :     0.045139  d :     0.247222
      dxz     :     0.027997
      dyz     :     0.037769
      dx2y2   :     0.115502
      dxy     :     0.020815
      f0      :     0.001756  f :     0.027503
      f+1     :     0.003011
      f-1     :     0.003839
      f+2     :     0.004301
      f-2     :     0.003638
[...]
      dxz     :     0.000523
      dyz     :     0.008551
      dx2y2   :     0.008254
      dxy     :     0.009069
 14 H s       :     0.688221  s :     0.688221
      pz      :     0.081660  p :     0.270211
      px      :     0.095669
      py      :     0.092882
      dz2     :     0.006157  d :     0.029715
      dxz     :     0.005567
      dyz     :     0.005330
      dx2y2   :     0.007223
      dxy     :     0.005438
 15 H s       :     0.684662  s :     0.684662
      pz      :     0.075660  p :     0.279999
      px      :     0.127779
      py      :     0.076559
      dz2     :     0.003914  d :     0.029414
      dxz     :     0.008711
      dyz     :     0.000829
      dx2y2   :     0.007047
      dxy     :     0.008914
 16 C s       :     2.619169  s :     2.619169
      pz      :     0.910669  p :     2.677695
      px      :     0.845494
      py      :     0.921532
      dz2     :     0.101215  d :     0.406364
      dxz     :     0.071437
      dyz     :     0.034595
      dx2y2   :     0.089669
      dxy     :     0.109448
      f0      :     0.005873  f :     0.030547
      f+1     :     0.003088
      f-1     :     0.001263
      f+2     :     0.005536
      f-2     :     0.004601
      f+3     :     0.006093
      f-3     :     0.004094
 17 H s       :     0.693031  s :     0.693031
      pz      :     0.076717  p :     0.268578
      px      :     0.070236
      py      :     0.121626
      dz2     :     0.003870  d :     0.029498
      dxz     :     0.001466
      dyz     :     0.007827
      dx2y2   :     0.007957
      dxy     :     0.008379
 18 H s       :     0.687992  s :     0.687992
      pz      :     0.129151  p :     0.269204
      px      :     0.065041
      py      :     0.075012
      dz2     :     0.010287  d :     0.029249
      dxz     :     0.009077
      dyz     :     0.009596
      dx2y2   :     0.000215
      dxy     :     0.000074
 19 H s       :     0.688158  s :     0.688158
      pz      :     0.082146  p :     0.268146
      px      :     0.083294
      py      :     0.102706
      dz2     :     0.004988  d :     0.029229
      dxz     :     0.004218
      dyz     :     0.005182
      dx2y2   :     0.008066
      dxy     :     0.006774
 20 C s       :     2.605012  s :     2.605012
      pz      :     0.838727  p :     2.634479
      px      :     0.912822
      py      :     0.882931
      dz2     :     0.110002  d :     0.502503
      dxz     :     0.105314
      dyz     :     0.118810
      dx2y2   :     0.067928
      dxy     :     0.100449
      f0      :     0.006159  f :     0.031531
      f+1     :     0.003694
      f-1     :     0.007129
      f+2     :     0.004008
      f-2     :     0.004462
      f+3     :     0.004710
      f-3     :     0.001368
 21 H s       :     0.685962  s :     0.685962
      pz      :     0.068320  p :     0.267155
      px      :     0.088846
      py      :     0.109990
      dz2     :     0.002740  d :     0.029334
      dxz     :     0.002423
      dyz     :     0.006770
      dx2y2   :     0.009177
      dxy     :     0.008224
 22 H s       :     0.668922  s :     0.668922
      pz      :     0.080061  p :     0.322391
      px      :     0.161319
      py      :     0.081011
      dz2     :     0.004054  d :     0.029593
      dxz     :     0.008413
      dyz     :     0.001917
      dx2y2   :     0.006766
      dxy     :     0.008444
 23 H s       :     0.684635  s :     0.684635
      pz      :     0.088087  p :     0.272733
      px      :     0.086993
      py      :     0.097652
      dz2     :     0.007188  d :     0.029381
      dxz     :     0.005441
      dyz     :     0.006349
      dx2y2   :     0.005443
      dxy     :     0.004960
 24 Aus       :     2.221890  s :     2.221890
      pz      :     2.366683  p :     6.830711
      px      :     2.285667
      py      :     2.178361
      dz2     :     1.759384  d :     9.514252
      dxz     :     2.006376
      dyz     :     1.924736
      dx2y2   :     1.917343
      dxy     :     1.906413
      f0      :     0.029907  f :     0.128494
      f+1     :     0.020016
      f-1     :     0.029101
      f+2     :     0.010497
      f-2     :     0.011398
      f+3     :     0.008722
      f-3     :     0.018853
      g0      :     0.000269  g :     0.001723
      g+1     :     0.000210
      g-1     :     0.000345
      g+2     :     0.000168
      g-2     :     0.000179
      g+3     :     0.000067
      g-3     :     0.000134
      g+4     :     0.000157
      g-4     :     0.000195
 25 Cls       :     5.674587  s :     5.674587
      pz      :     3.523764  p :    11.157456
      px      :     3.844526
      py      :     3.789167
      dz2     :     0.055046  d :     0.191618
      dxz     :     0.046692
      dyz     :     0.044644
      dx2y2   :     0.014575
      dxy     :     0.030661
      f0      :     0.001637  f :     0.005508
      f+1     :     0.001021
      f-1     :     0.001592
      f+2     :     0.000567
      f-2     :     0.000555
      f+3     :     0.000059
      f-3     :     0.000077
 26 Cls       :     5.702499  s :     5.702499
      pz      :     3.878647  p :    11.239847
      px      :     3.541896
      py      :     3.819304
      dz2     :     0.029513  d :     0.187943
      dxz     :     0.056892
      dyz     :     0.018512
      dx2y2   :     0.036235
      dxy     :     0.046790
      f0      :     0.000581  f :     0.005734
      f+1     :     0.000883
      f-1     :     0.000243
      f+2     :     0.000620
      f-2     :     0.000686
      f+3     :     0.001235
      f-3     :     0.001486
 27 Cls       :     5.679343  s :     5.679343
      pz      :     3.505738  p :    11.161411
      px      :     3.844000
      py      :     3.811673
      dz2     :     0.058130  d :     0.184634
      dxz     :     0.055191
      dyz     :     0.041703
      dx2y2   :     0.013795
      dxy     :     0.015815
      f0      :     0.001793  f :     0.005693
      f+1     :     0.001150
      f-1     :     0.001683
      f+2     :     0.000486
      f-2     :     0.000484
      f+3     :     0.000048
      f-3     :     0.000048


                      *****************************
                      * MAYER POPULATION ANALYSIS *
                      *****************************

  NA   - Mulliken gross atomic population
  ZA   - Total nuclear charge
  QA   - Mulliken gross atomic charge
  VA   - Mayer's total valence
  BVA  - Mayer's bonded valence
  FA   - Mayer's free valence

  ATOM       NA         ZA         QA         VA         BVA        FA
  0 C      6.6122     6.0000    -0.6122     2.0722     2.0722    -0.0000
  1 C      5.2060     6.0000     0.7940    -3.1488    -3.1488     0.0000
  2 C      6.8840     6.0000    -0.8840     3.6219     3.6219    -0.0000
  3 H      0.9515     1.0000     0.0485     1.0546     1.0546    -0.0000
  4 H      0.8497     1.0000     0.1503     0.9862     0.9862    -0.0000
  5 H      0.8445     1.0000     0.1555     0.9891     0.9891    -0.0000
  6 C      2.5926     6.0000     3.4074    -2.0891    -2.0891     0.0000
  7 O      8.4650     8.0000    -0.4650     1.6469     1.6469    -0.0000
  8 C      5.2327     6.0000     0.7673     3.7348     3.7348    -0.0000
  9 O      8.6027     8.0000    -0.6027     1.7713     1.7713    -0.0000
 10 C      6.0674     6.0000    -0.0674     3.2665     3.2665     0.0000
 11 O      8.5407     8.0000    -0.5407     1.8213     1.8213     0.0000
 12 C      6.3952     6.0000    -0.3952     4.1951     4.1951     0.0000
 13 H      0.8614     1.0000     0.1386     0.9595     0.9595     0.0000
 14 H      0.9423     1.0000     0.0577     1.0805     1.0805    -0.0000
 15 H      0.9075     1.0000     0.0925     0.9940     0.9940     0.0000
 16 C      6.5583     6.0000    -0.5583     3.7377     3.7377    -0.0000
 17 H      0.8894     1.0000     0.1106     1.0493     1.0493    -0.0000
 18 H      0.8953     1.0000     0.1047     1.0423     1.0423    -0.0000
 19 H      0.8830     1.0000     0.1170     1.0394     1.0394    -0.0000
 20 C      6.7822     6.0000    -0.7822     3.8528     3.8528     0.0000
 21 H      0.9334     1.0000     0.0666     1.0539     1.0539     0.0000
 22 H      0.9183     1.0000     0.0817     1.0735     1.0735     0.0000
 23 H      0.8792     1.0000     0.1208     0.9689     0.9689     0.0000
 24 Au    18.6747    19.0000     0.3253     2.9117     2.9117    -0.0000
 25 Cl    17.5874    17.0000    -0.5874     0.6894     0.6894    -0.0000
 26 Cl    17.4794    17.0000    -0.4794     0.7810     0.7810     0.0000
 27 Cl    17.5640    17.0000    -0.5640     0.7118     0.7118    -0.0000

  Mayer bond orders larger than 0.100000
B(  0-C ,  1-C ) :  -0.7761 B(  0-C ,  2-C ) :   1.1662 B(  0-C ,  4-H ) :  -0.1172 
B(  0-C ,  5-H ) :  -0.1021 B(  0-C ,  6-C ) :  -0.8553 B(  0-C ,  9-O ) :   0.1227 
B(  0-C , 24-Au) :   1.4451 B(  0-C , 25-Cl) :   0.4816 B(  0-C , 27-Cl) :   0.6019 
B(  1-C ,  2-C ) :  -0.6955 B(  1-C ,  3-H ) :  -0.1646 B(  1-C ,  6-C ) :  -0.5027 
B(  1-C ,  9-O ) :  -0.1307 B(  1-C , 10-C ) :   1.0063 B(  1-C , 12-C ) :   0.2523 
B(  1-C , 20-C ) :   0.4211 B(  1-C , 24-Au) :  -0.8610 B(  1-C , 25-Cl) :  -0.7638 
B(  1-C , 27-Cl) :  -0.9096 B(  2-C ,  3-H ) :   1.0896 B(  2-C ,  4-H ) :   0.9981 
B(  2-C ,  5-H ) :   0.9994 B(  2-C ,  6-C ) :   0.1096 B(  6-C ,  7-O ) :   0.3691 
B(  6-C ,  8-C ) :  -0.1194 B(  6-C , 10-C ) :  -0.7172 B(  6-C , 12-C ) :  -0.3012 
B(  6-C , 20-C ) :   0.4442 B(  6-C , 24-Au) :  -0.2906 B(  7-O ,  8-C ) :   1.1019 
B(  7-O , 10-C ) :   0.1164 B(  7-O , 16-C ) :  -0.1117 B(  7-O , 20-C ) :   0.1291 
B(  8-C ,  9-O ) :   1.7414 B(  8-C , 16-C ) :   0.9969 B(  9-O , 16-C ) :  -0.1041 
B( 10-C , 11-O ) :   1.7464 B( 10-C , 12-C ) :   1.3430 B( 12-C , 13-H ) :   0.9428 
B( 12-C , 14-H ) :   1.0340 B( 12-C , 15-H ) :   0.9565 B( 16-C , 17-H ) :   1.0252 
B( 16-C , 18-H ) :   0.9849 B( 16-C , 19-H ) :   0.9832 B( 20-C , 21-H ) :   1.0126 
B( 20-C , 22-H ) :   0.9703 B( 20-C , 23-H ) :   1.0025 B( 24-Au, 25-Cl) :   0.9660 
B( 24-Au, 26-Cl) :   0.6923 B( 24-Au, 27-Cl) :   0.9436 B( 25-Cl, 27-Cl) :   0.1083 


-------
TIMINGS
-------

Total SCF time: 0 days 0 hours 1 min 33 sec 

Total time                  ....      93.657 sec
Sum of individual times     ....      92.624 sec  ( 98.9%)

Fock matrix formation       ....      84.082 sec  ( 89.8%)
  XC integration            ....       6.774 sec  (  8.1% of F)
    Basis function eval.    ....       1.191 sec  ( 17.6% of XC)
    Density eval.           ....       2.357 sec  ( 34.8% of XC)
    XC-Functional eval.     ....       0.068 sec  (  1.0% of XC)
    XC-Potential eval.      ....       2.195 sec  ( 32.4% of XC)
Diagonalization             ....       3.446 sec  (  3.7%)
Density matrix formation    ....       0.122 sec  (  0.1%)
Population analysis         ....       0.163 sec  (  0.2%)
Initial guess               ....       1.792 sec  (  1.9%)
Orbital Transformation      ....       0.000 sec  (  0.0%)
Orbital Orthonormalization  ....       0.000 sec  (  0.0%)
DIIS solution               ....       1.856 sec  (  2.0%)
Grid generation             ....       1.163 sec  (  1.2%)


           ************************************************************
           *        Program running with 24 parallel MPI-processes    *
           *              working on a common directory               *
           ************************************************************

------------------------------------------------------------------------------
                                ORCA  MP2 
------------------------------------------------------------------------------

Freezing NCore=54 chemical core electrons

-------------
RI-MP2 ENERGY
-------------
Dimension of the basis                    ...  869
Memory devoted to MP2                     ... 5000 MB   
Data format for buffers                   ... DOUBLE
Compression type for matrix containers    ... UNCOMPRESSED
Scaling for aa/bb pairs                   ...   4.000e-01
Scaling for ab pairs                      ...   4.700e-01
Overall scaling of the MP2 energy         ...   1.000e+00
Calculating two index integrals           ... done (    0.035 sec)
Cholesky decomposition of V**-1           ... done (    0.459 sec)

-----------------
RI-TRANSFORMATION (AUX index driven)
-----------------

Dimension of the orbital-basis         ... 869
Dimension of the aux-basis             ... 2182
Transformation of internal/external MOs...   27-  79 to   80- 868
Number Format for Storage              ... Double (8 Byte)
Integral mode                          ... Direct

First Phase: integral generation and transformation of MO indices
  Aux angular momentum 0               ... done (    0.189 sec)
  Aux angular momentum 1               ... done (    0.348 sec)
  Aux angular momentum 2               ... done (    0.554 sec)
  Aux angular momentum 3               ... done (    0.505 sec)
  Aux angular momentum 4               ... done (    0.149 sec)
  Aux angular momentum 5               ... done (    0.184 sec)
  Aux angular momentum 6               ... done (    0.234 sec)
Closing buffer VIA ( 0.68 GB; CompressionRatio= 1.00)
  Phase 1 completed in     2.284 sec
Second Phase: sorting and transformation of aux index

IA-Transformation
Memory available                       ... 4905 MB 
Max. # MO pairs treated in a batch     ... 3    
# of internal orbitals                 ... 53
# batches for internal orbitals        ... 1
Closing buffer IAV ( 0.04 GB; CompressionRatio= 1.00)
(ia|v) transformation done in     0.593 sec

  Phase 2 completed in     1.327 sec
RI-Integral transformation completed in     3.637 sec
Opening buffers                              ... done

Starting loop over batches of integrals:

Operator 0  - window                       ... ( 27- 79)x( 80-868)
Operator 0  - Memory available             ...  5000 MB
Operator 0  - Memory needed per MO         ...  13.1 MB
Operator 0  - Number of orbitals per batch ... 3
Operator 0  - Number of batches            ... 1

OPERATOR  0   PASS   0:  MOs    27 ...   29 +   30 ...   32 +   33 ...   35 +   36 ...   38
                            +   39 ...   41 +   42 ...   44 +   45 ...   47 +   48 ...   50
                            +   51 ...   53 +   54 ...   56 +   57 ...   59 +   60 ...   62
                            +   63 ...   65 +   66 ...   68 +   69 ...   71 +   72 ...   74
                            +   75 ...   77 +   78 ...   79
  Reading integrals       ... ok
  Internal MO  29
Time spent in pair loops =     0.390 sec
Deleting buffer (Ka|jb)[aa] ...done

-----------------------------------------------
 RI-MP2 CORRELATION ENERGY:     -1.746125681 Eh
-----------------------------------------------


-------
TIMINGS
-------

Total time                :   12.253 sec
Integral trafo            :    3.649 sec ( 29.8%)
I/O of integrals          :    0.042 sec (  0.3%)
K(i,j) Operators          :    0.269 sec (  2.2%)
T(i,j) pair energies      :    0.044 sec (  0.4%)
V-calculation             :    0.035 sec (  0.3%)
V**(-1/2)                 :    0.459 sec (  3.7%)
Gamma(ia|P)               :    0.000 sec (  0.0%)
Gamma-Trafo               :    0.000 sec (  0.0%)
D(virtual)                :    0.000 sec (  0.0%)
D(internal)               :    0.000 sec (  0.0%)
W(virtual)                :    0.000 sec (  0.0%)
W(internal)               :    0.000 sec (  0.0%)
L(virtual)                :    0.000 sec (  0.0%)
L(internal)               :    0.000 sec (  0.0%)
G(D)                      :    0.000 sec (  0.0%)
G(Z)                      :    0.000 sec (  0.0%)
Z-Vector Solution         :    0.000 sec (  0.0%)
Z-Vector Solution         :    0.000 sec (  0.0%)
3-Index Derivative 
+ Separable RIJ part      :    0.000 sec (  0.0%)
2-Index Derivative 
+ Separable RIJ part      :    0.000 sec (  0.0%)
Separable Gradient (X)    :    0.000 sec (  0.0%)


---------------------------------------
MP2 TOTAL ENERGY:    -2090.917783941 Eh
---------------------------------------


-------------------------------------------------------------------------------
                          DFT DISPERSION CORRECTION                            
                                                                               
                              DFTD3 V3.1  Rev 1                                
                          USING Becke-Johnson damping                          
-------------------------------------------------------------------------------
The DSD-BLYP/2013 functional is recognized
Active option DFTDOPT                   ...         4   

molecular C6(AA) [au] = 14167.897186 


            DFT-D V3
 parameters
 s6 scaling factor         :     0.5700 
 a1 scaling factor         :     0.0000 
 s8 scaling factor         :     0.0000 
 a2 scaling factor         :     5.4000 
 ad hoc parameters k1-k3   :    16.0000     1.3333    -4.0000 

 Edisp/kcal,au: -26.546255226504  -0.042304145980 
 E6   /kcal   : -26.546255227 
 E8   /kcal   :  -0.000000000 
 % E8         :   0.000000000 

-------------------------   ----------------
Dispersion correction           -0.042304146
-------------------------   ----------------


-------------------------   --------------------
FINAL SINGLE POINT ENERGY     -2090.960088086740
-------------------------   --------------------


                            ***************************************
                            *     ORCA property calculations      *
                            ***************************************


  WARNING: The energy has been calculated at the MP2 level but the densities
           used in the property calculations are still SCF densities
           MP2 response densities have not been calculated 
           use %mp2 Density relaxed end
           or  %mp2 Density unrelaxed end

                                    ---------------------
                                    Active property flags
                                    ---------------------
   (+) Dipole Moment


------------------------------------------------------------------------------
                       ORCA ELECTRIC PROPERTIES CALCULATION
------------------------------------------------------------------------------

Dipole Moment Calculation                       ... on
Quadrupole Moment Calculation                   ... off
Polarizability Calculation                      ... off
GBWName                                         ... TMB28_T1.gbw
Electron density file                           ... TMB28_T1.scfp
The origin for moment calculation is the CENTER OF MASS  = ( 0.348205, -0.021782 -0.008003)

-------------
DIPOLE MOMENT
-------------
                                X             Y             Z
Electronic contribution:    195.96723     -27.75880      -6.40363
Nuclear contribution   :   -200.70985      26.65253       6.49371
                        -----------------------------------------
Total Dipole Moment    :     -4.74262      -1.10627       0.09008
                        -----------------------------------------
Magnitude (a.u.)       :      4.87077
Magnitude (Debye)      :     12.38050



--------------------
Rotational spectrum 
--------------------
 
Rotational constants in cm-1:     0.016870     0.006757     0.006678 
Rotational constants in MHz :   505.750873   202.581775   200.209050 

 Dipole components along the rotational axes: 
x,y,z [a.u.] :    -4.739067    -1.016949    -0.481056 
x,y,z [Debye]:   -12.045751    -2.584880    -1.222748 

 

Timings for individual modules:

Sum of individual times         ...      111.047 sec (=   1.851 min)
GTO integral calculation        ...        4.019 sec (=   0.067 min)   3.6 %
SCF iterations                  ...       94.043 sec (=   1.567 min)  84.7 %
MP2 module                      ...       12.985 sec (=   0.216 min)  11.7 %
                             ****ORCA TERMINATED NORMALLY****
TOTAL RUN TIME: 0 days 0 hours 1 minutes 51 seconds 688 msec
