
                                 *****************
                                 * O   R   C   A *
                                 *****************

           --- An Ab Initio, DFT and Semiempirical electronic structure package ---

                  #######################################################
                  #                        -***-                        #
                  #          Department of theory and spectroscopy      #
                  #               Directorship: Frank Neese             #
                  #        Max Planck Institute fuer Kohlenforschung    #
                  #                Kaiser Wilhelm Platz 1               #
                  #                 D-45470 Muelheim/Ruhr               #
                  #                      Germany                        #
                  #                                                     #
                  #                  All rights reserved                #
                  #                        -***-                        #
                  #######################################################


                         Program Version 4.2.0 -  RELEASE  -


 With contributions from (in alphabetic order):
   Daniel Aravena         : Magnetic Suceptibility
   Michael Atanasov       : Ab Initio Ligand Field Theory (pilot matlab implementation)
   Alexander A. Auer      : GIAO ZORA, VPT2
   Ute Becker             : Parallelization
   Giovanni Bistoni       : ED, misc. LED, open-shell LED, HFLED
   Martin Brehm           : Molecular dynamics
   Dmytro Bykov           : SCF Hessian
   Vijay G. Chilkuri      : MRCI spin determinant printing, contributions to CSF-ICE
   Dipayan Datta          : RHF DLPNO-CCSD density
   Achintya Kumar Dutta   : EOM-CC, STEOM-CC
   Dmitry Ganyushin       : Spin-Orbit,Spin-Spin,Magnetic field MRCI
   Miquel Garcia          : C-PCM Hessian, Gaussian charge scheme
   Yang Guo               : DLPNO-NEVPT2, CIM, IAO-localization
   Andreas Hansen         : Spin unrestricted coupled pair/coupled cluster methods
   Benjamin Helmich-Paris : CASSCF linear response (MC-RPA)
   Lee Huntington         : MR-EOM, pCC
   Robert Izsak           : Overlap fitted RIJCOSX, COSX-SCS-MP3, EOM
   Christian Kollmar      : KDIIS, OOCD, Brueckner-CCSD(T), CCSD density
   Simone Kossmann        : Meta GGA functionals, TD-DFT gradient, OOMP2, MP2 Hessian
   Martin Krupicka        : AUTO-CI
   Lucas Lang             : DCDCAS
   Dagmar Lenk            : GEPOL surface, SMD
   Dimitrios Liakos       : Extrapolation schemes; Compound Job, initial MDCI parallelization
   Dimitrios Manganas     : Further ROCIS development; embedding schemes
   Dimitrios Pantazis     : SARC Basis sets
   Taras Petrenko         : DFT Hessian,TD-DFT gradient, ASA, ECA, R-Raman, ABS, FL, XAS/XES, NRVS
   Peter Pinski           : DLPNO-MP2, DLPNO-MP2 Gradient
   Christoph Reimann      : Effective Core Potentials
   Marius Retegan         : Local ZFS, SOC
   Christoph Riplinger    : Optimizer, TS searches, QM/MM, DLPNO-CCSD(T), (RO)-DLPNO pert. Triples
   Tobias Risthaus        : Range-separated hybrids, TD-DFT gradient, RPA, STAB
   Michael Roemelt        : Original ROCIS implementation
   Masaaki Saitow         : Open-shell DLPNO-CCSD energy and density
   Barbara Sandhoefer     : DKH picture change effects
   Avijit Sen             : IP-ROCIS
   Kantharuban Sivalingam : CASSCF convergence, NEVPT2, FIC-MRCI
   Bernardo de Souza      : ESD, SOC TD-DFT
   Georgi Stoychev        : AutoAux, RI-MP2 NMR
   Willem Van den Heuvel  : Paramagnetic NMR
   Boris Wezisla          : Elementary symmetry handling
   Frank Wennmohs         : Technical directorship


 We gratefully acknowledge several colleagues who have allowed us to
 interface, adapt or use parts of their codes:
   Stefan Grimme, W. Hujo, H. Kruse,             : VdW corrections, initial TS optimization,
                  C. Bannwarth                     DFT functionals, gCP, sTDA/sTD-DF
   Ed Valeev, F. Pavosevic, A. Kumar             : LibInt (2-el integral package), F12 methods
   Garnet Chan, S. Sharma, J. Yang, R. Olivares  : DMRG
   Ulf Ekstrom                                   : XCFun DFT Library
   Mihaly Kallay                                 : mrcc  (arbitrary order and MRCC methods)
   Andreas Klamt, Michael Diedenhofen            : otool_cosmo (COSMO solvation model)
   Jiri Pittner, Ondrej Demel                    : Mk-CCSD
   Frank Weinhold                                : gennbo (NPA and NBO analysis)
   Christopher J. Cramer and Donald G. Truhlar   : smd solvation model
   Lars Goerigk                                  : TD-DFT with DH, B97 family of functionals
   V. Asgeirsson, H. Jonsson                     : NEB implementation
   FAccTs GmbH                                   : IRC, NEB, NEB-TS, Multilevel, MM, QM/MM, CI optimization
   S Lehtola, MJT Oliveira, MAL Marques          : LibXC Library


 Your calculation uses the libint2 library for the computation of 2-el integrals
 For citations please refer to: http://libint.valeyev.net

 Your ORCA version has been built with support for libXC version: 4.2.3
 For citations please refer to: https://tddft.org/programs/libxc/

 This ORCA versions uses:
   CBLAS   interface :  Fast vector & matrix operations
   LAPACKE interface :  Fast linear algebra routines
   SCALAPACK package :  Parallel linear algebra routines


Your calculation utilizes the atom-pairwise dispersion correction
with the Becke-Johnson damping scheme (D3BJ)
Cite in your paper:
S.Grimme, S.Ehrlich, L.Goerigk, J Comput Chem, (2011), 32, 1456–1465 
S.Grimme, J.Antony, S.Ehrlich and H.Krieg, J.Chem.Phys., 132, (2010), 154104 
   

----- Orbital basis set information -----
Your calculation utilizes the basis: def2-TZVPPD
   F. Weigend and R. Ahlrichs, Phys. Chem. Chem. Phys. 7, 3297 (2005).
   D. Rappoport and F. Furche, J. Chem. Phys. 133 134105 (2010).

----- AuxC basis set information -----
Your calculation utilizes the auxiliary basis: def2-TZVPPD/C
   A. Hellweg, C. Hattig, S. Hofener and W. Klopper, Theor. Chem. Acc. 117, 587 (2007).

----- AuxJK basis set information -----
Your calculation utilizes the auxiliary basis: def2/JK
   H-Ba, Hf-Rn: F. Weigend, J. Comput. Chem. 29, 167 (2008).

cite the ECPs for Au [Def2-ECP] as follows:
Ce-Yb(ecp-28): M. Dolg, H. Stoll, H.Preuss, J. Chem. Phys., 1989, 90, 1730-1734.
Y-Cd(ecp-28), Hf-Hg(ecp-46): D. Andrae,U. Haeussermann, M. Dolg, H. Stoll, H. Preuss, Theor. Chim. Acta, 1990, 77, 123-141.
In-Sb(ecp-28), Tl-Bi(ecp-46): B. Metz, H. Stoll, M. Dolg, J. Chem. Phys., 2000, 113, 2563-2569.
Te-Xe(ecp-28), Po-Rn(ecp-46): K. A. Peterson, D. Figgen, E. Goll, H. Stoll, M. Dolg, J. Chem. Phys., 2003, 119, 11113-11123.
Rb(ecp-28), Cs(ecp-46): T. Leininger, A. Nicklass, W. Kuechle, H. Stoll, M. Dolg, A. Bergner, Chem. Phys. Lett., 1996, 255, 274-280.
Sr(ecp-28), Ba(ecp-46): M. Kaupp, P. V. Schleyer, H. Stoll and H. Preuss, J. Chem. Phys., 1991, 94, 1360-1366.
La(ecp-46): M. Dolg, H. Stoll, A. Savin, H. Preuss, Theor. Chim. Acta, 1989, 75, 173-194.
Lu(ecp-28): X. Cao, M. Dolg, J. Chem. Phys., 2001, 115, 7348-7355.

ECP parameters for Au [Def2-ECP] have been obtained from:
TURBOMOLE (7.0.2)

================================================================================
                                        WARNINGS
                       Please study these warnings very carefully!
================================================================================


WARNING: No MP2 level density has been requested!
         To caclulate MP2 level properties use
         %mp2 Density relaxed end
         or
         %mp2 Density unrelaxed end
         Otherwise for double-hybrid DFT only the energy is correct!

WARNING: There are different parametrizations of Gershom Martin's DSD-DFs
         for use with and without D3(BJ)!
         You are using the D3(BJ) parametrized version,
         consistent with the 2013 article (S. Kozuch and J. M. L. Martin, JCC 2013, 34, 2327)

WARNING: The frozen-core approximation is turned on by default for 
         the MP2 part of double-hybrid DFT.

INFO   : the flag for use of LIBINT has been found!

================================================================================
                                       INPUT FILE
================================================================================
NAME = TMB29_C2.in
|  1> #
|  2> # TMB29_C2 ri-DSD-BLYP/2013-D3BJ/Def2-TZVPPD
|  3> #
|  4> ! rijk ri-dsd-blyp/2013 d3bj def2-tzvppd def2/jk def2-tzvppd/c grid4 nofinalgrid
|  5> 
|  6> *xyz 1 1
|  7> C        0.315194   -1.265840   -0.205097 
|  8> C        1.442343   -0.626838    0.044790 
|  9> C        0.309905   -2.700146   -0.639207 
| 10> H        1.304587   -3.137496   -0.733589 
| 11> H       -0.263876   -3.299051    0.071387 
| 12> H       -0.202915   -2.796953   -1.598442 
| 13> C        1.798588    0.767906    0.516696 
| 14> O        3.282693    0.709723    0.495405 
| 15> C        3.659486   -0.471899    0.173285 
| 16> O        2.736849   -1.295199   -0.102354 
| 17> C        1.344136    1.838147   -0.506262 
| 18> O        0.287215    2.374668   -0.320274 
| 19> C        2.219880    2.103298   -1.689301 
| 20> H        2.470349    1.173144   -2.206730 
| 21> H        1.702341    2.771806   -2.372494 
| 22> H        3.157528    2.564787   -1.369834 
| 23> C        5.078697   -0.839761    0.144564 
| 24> H        5.213504   -1.795905   -0.353509 
| 25> H        5.652959   -0.054437   -0.347617 
| 26> H        5.438400   -0.910855    1.175413 
| 27> C        1.364152    1.101522    1.920814 
| 28> H        1.754676    2.072052    2.227431 
| 29> H        0.275994    1.149047    1.931402 
| 30> H        1.690154    0.330993    2.618895 
| 31> Au      -1.496985   -0.316099   -0.013075 
| 32> P       -3.546234    0.682452    0.150815 
| 33> H       -3.831804    1.712524   -0.762172 
| 34> H       -4.687337   -0.122280   -0.012331 
| 35> H       -3.867595    1.325764    1.359005 
| 36> *
| 37> 
| 38> %maxcore 5000
| 39> 
| 40> %pal
| 41> nprocs = 24
| 42> end
| 43> 
| 44> 
| 45>                          ****END OF INPUT****
================================================================================

                       ****************************
                       * Single Point Calculation *
                       ****************************

---------------------------------
CARTESIAN COORDINATES (ANGSTROEM)
---------------------------------
  C      0.315194   -1.265840   -0.205097
  C      1.442343   -0.626838    0.044790
  C      0.309905   -2.700146   -0.639207
  H      1.304587   -3.137496   -0.733589
  H     -0.263876   -3.299051    0.071387
  H     -0.202915   -2.796953   -1.598442
  C      1.798588    0.767906    0.516696
  O      3.282693    0.709723    0.495405
  C      3.659486   -0.471899    0.173285
  O      2.736849   -1.295199   -0.102354
  C      1.344136    1.838147   -0.506262
  O      0.287215    2.374668   -0.320274
  C      2.219880    2.103298   -1.689301
  H      2.470349    1.173144   -2.206730
  H      1.702341    2.771806   -2.372494
  H      3.157528    2.564787   -1.369834
  C      5.078697   -0.839761    0.144564
  H      5.213504   -1.795905   -0.353509
  H      5.652959   -0.054437   -0.347617
  H      5.438400   -0.910855    1.175413
  C      1.364152    1.101522    1.920814
  H      1.754676    2.072052    2.227431
  H      0.275994    1.149047    1.931402
  H      1.690154    0.330993    2.618895
  Au    -1.496985   -0.316099   -0.013075
  P     -3.546234    0.682452    0.150815
  H     -3.831804    1.712524   -0.762172
  H     -4.687337   -0.122280   -0.012331
  H     -3.867595    1.325764    1.359005

----------------------------
CARTESIAN COORDINATES (A.U.)
----------------------------
  NO LB      ZA    FRAG     MASS         X           Y           Z
   0 C     6.0000    0    12.011    0.595630   -2.392091   -0.387577
   1 C     6.0000    0    12.011    2.725633   -1.184552    0.084641
   2 C     6.0000    0    12.011    0.585636   -5.102536   -1.207926
   3 H     1.0000    0     1.008    2.465312   -5.929008   -1.386282
   4 H     1.0000    0     1.008   -0.498653   -6.234303    0.134902
   5 H     1.0000    0     1.008   -0.383454   -5.285475   -3.020618
   6 C     6.0000    0    12.011    3.398839    1.451132    0.976414
   7 O     8.0000    0    15.999    6.203391    1.341182    0.936180
   8 C     6.0000    0    12.011    6.915426   -0.891760    0.327461
   9 O     8.0000    0    15.999    5.171895   -2.447571   -0.193421
  10 C     6.0000    0    12.011    2.540049    3.473594   -0.956697
  11 O     8.0000    0    15.999    0.542758    4.487472   -0.605230
  12 C     6.0000    0    12.011    4.194965    3.974657   -3.192316
  13 H     1.0000    0     1.008    4.668283    2.216921   -4.170115
  14 H     1.0000    0     1.008    3.216958    5.237954   -4.483364
  15 H     1.0000    0     1.008    5.966863    4.846745   -2.588611
  16 C     6.0000    0    12.011    9.597346   -1.586918    0.273186
  17 H     1.0000    0     1.008    9.852095   -3.393769   -0.668035
  18 H     1.0000    0     1.008   10.682544   -0.102871   -0.656901
  19 H     1.0000    0     1.008   10.277087   -1.721266    2.221209
  20 C     6.0000    0    12.011    2.577874    2.081575    3.629812
  21 H     1.0000    0     1.008    3.315857    3.915611    4.209235
  22 H     1.0000    0     1.008    0.521553    2.171384    3.649821
  23 H     1.0000    0     1.008    3.193928    0.625486    4.948994
  24 Au   19.0000*   0   196.966   -2.828892   -0.597341   -0.024708
  25 P    15.0000    0    30.974   -6.701411    1.289647    0.284999
  26 H     1.0000    0     1.008   -7.241060    3.236201   -1.440296
  27 H     1.0000    0     1.008   -8.857783   -0.231076   -0.023302
  28 H     1.0000    0     1.008   -7.308695    2.505331    2.568147
* core charge reduced due to ECP

--------------------------------
INTERNAL COORDINATES (ANGSTROEM)
--------------------------------
 C      0   0   0     0.000000000000     0.00000000     0.00000000
 C      1   0   0     1.319557477708     0.00000000     0.00000000
 C      1   2   0     1.498570374476   121.42356064     0.00000000
 H      3   1   2     1.090676517373   113.93141125   359.33812662
 H      3   1   2     1.092179320360   109.76863375   121.09587170
 H      3   1   2     1.092010866646   109.93578030   237.36249641
 C      2   1   3     1.514898213873   134.88683643   181.64046324
 O      7   2   1     1.485397663656   101.21131743   182.01554635
 C      8   7   2     1.281391747333   109.48240150   356.47560100
 O      9   8   7     1.266909145160   116.09114853     2.70262639
 C      7   2   1     1.548672169360   111.19150052   296.63975089
 O     11   7   2     1.199803450498   117.71897151    95.88998994
 C     11   7   2     1.495598168579   118.24135652   278.15640862
 H     13  11   7     1.093459626012   110.95451297    51.53647774
 H     13  11   7     1.086969290198   109.11192705   172.34243511
 H     13  11   7     1.092801460977   110.24518204   292.53634299
 C      9   8   7     1.466392583658   121.38874561   183.37606196
 H     17   9   8     1.086490215931   110.47681023   192.40966261
 H     17   9   8     1.090299393002   109.74925467   315.37660549
 H     17   9   8     1.094116203082   108.42302251    72.40245038
 C      7   2   1     1.507176708776   115.22794425    65.73534437
 H     21   7   2     1.090161208338   110.84436184   173.42080737
 H     21   7   2     1.089246787617   107.85868679   291.99202114
 H     21   7   2     1.089637245328   110.73719138    51.03199996
 Au     1   2   3     2.054963051640   120.78152007   180.13180219
 P     25   1   2     2.285472707276   177.91121135   159.42969449
 H     26  25   1     1.405753823489   117.11149707   267.01207168
 H     26  25   1     1.405818717242   117.99407731    27.02120061
 H     26  25   1     1.406003662074   117.80523906   147.40651696

---------------------------
INTERNAL COORDINATES (A.U.)
---------------------------
 C      0   0   0     0.000000000000     0.00000000     0.00000000
 C      1   0   0     2.493602250835     0.00000000     0.00000000
 C      1   2   0     2.831887600167   121.42356064     0.00000000
 H      3   1   2     2.061079918533   113.93141125   359.33812662
 H      3   1   2     2.063919804613   109.76863375   121.09587170
 H      3   1   2     2.063601473228   109.93578030   237.36249641
 C      2   1   3     2.862742744987   134.88683643   181.64046324
 O      7   2   1     2.806994784277   101.21131743   182.01554635
 C      8   7   2     2.421479472726   109.48240150   356.47560100
 O      9   8   7     2.394111320913   116.09114853     2.70262639
 C      7   2   1     2.926566271315   111.19150052   296.63975089
 O     11   7   2     2.267299935974   117.71897151    95.88998994
 C     11   7   2     2.826270945009   118.24135652   278.15640862
 H     13  11   7     2.066339231662   110.95451297    51.53647774
 H     13  11   7     2.054074274457   109.11192705   172.34243511
 H     13  11   7     2.065095479996   110.24518204   292.53634299
 C      9   8   7     2.771080387926   121.38874561   183.37606196
 H     17   9   8     2.053168955295   110.47681023   192.40966261
 H     17   9   8     2.060367256755   109.74925467   315.37660549
 H     17   9   8     2.067579982510   108.42302251    72.40245038
 C      7   2   1     2.848151215011   115.22794425    65.73534437
 H     21   7   2     2.060106125584   110.84436184   173.42080737
 H     21   7   2     2.058378120849   107.85868679   291.99202114
 H     21   7   2     2.059115978990   110.73719138    51.03199996
 Au     1   2   3     3.883317382927   120.78152007   180.13180219
 P     25   1   2     4.318917503303   177.91121135   159.42969449
 H     26  25   1     2.656489738106   117.11149707   267.01207168
 H     26  25   1     2.656612369529   117.99407731    27.02120061
 H     26  25   1     2.656961864610   117.80523906   147.40651696

---------------------
BASIS SET INFORMATION
---------------------
There are 5 groups of distinct atoms

 Group   1 Type C   : 12s6p3d1f contracted to 6s3p3d1f pattern {621111/411/111/1}
 Group   2 Type H   : 5s3p1d contracted to 3s3p1d pattern {311/111/1}
 Group   3 Type O   : 12s7p3d1f contracted to 6s4p3d1f pattern {621111/4111/111/1}
 Group   4 Type Au  : 8s8p6d2f1g contracted to 6s5p3d2f1g pattern {311111/41111/411/11/1}
 Group   5 Type P   : 15s9p4d1f contracted to 6s5p4d1f pattern {732111/51111/1111/1}

Atom   0C    basis set group =>   1
Atom   1C    basis set group =>   1
Atom   2C    basis set group =>   1
Atom   3H    basis set group =>   2
Atom   4H    basis set group =>   2
Atom   5H    basis set group =>   2
Atom   6C    basis set group =>   1
Atom   7O    basis set group =>   3
Atom   8C    basis set group =>   1
Atom   9O    basis set group =>   3
Atom  10C    basis set group =>   1
Atom  11O    basis set group =>   3
Atom  12C    basis set group =>   1
Atom  13H    basis set group =>   2
Atom  14H    basis set group =>   2
Atom  15H    basis set group =>   2
Atom  16C    basis set group =>   1
Atom  17H    basis set group =>   2
Atom  18H    basis set group =>   2
Atom  19H    basis set group =>   2
Atom  20C    basis set group =>   1
Atom  21H    basis set group =>   2
Atom  22H    basis set group =>   2
Atom  23H    basis set group =>   2
Atom  24Au   basis set group =>   4
Atom  25P    basis set group =>   5
Atom  26H    basis set group =>   2
Atom  27H    basis set group =>   2
Atom  28H    basis set group =>   2
---------------------------------
AUXILIARY/C BASIS SET INFORMATION
---------------------------------
There are 5 groups of distinct atoms

 Group   1 Type C   : 9s7p6d4f1g contracted to 9s7p5d4f1g pattern {111111111/1111111/21111/1111/1}
 Group   2 Type H   : 5s4p3d1f contracted to 5s4p3d1f pattern {11111/1111/111/1}
 Group   3 Type O   : 9s7p6d4f1g contracted to 9s7p5d4f1g pattern {111111111/1111111/21111/1111/1}
 Group   4 Type Au  : 9s9p8d5f4g3h1i contracted to 9s9p8d5f4g3h1i pattern {111111111/111111111/11111111/11111/1111/111/1}
 Group   5 Type P   : 12s9p8d6f2g contracted to 12s9p8d6f2g pattern {111111111111/111111111/11111111/111111/11}

Atom   0C    basis set group =>   1
Atom   1C    basis set group =>   1
Atom   2C    basis set group =>   1
Atom   3H    basis set group =>   2
Atom   4H    basis set group =>   2
Atom   5H    basis set group =>   2
Atom   6C    basis set group =>   1
Atom   7O    basis set group =>   3
Atom   8C    basis set group =>   1
Atom   9O    basis set group =>   3
Atom  10C    basis set group =>   1
Atom  11O    basis set group =>   3
Atom  12C    basis set group =>   1
Atom  13H    basis set group =>   2
Atom  14H    basis set group =>   2
Atom  15H    basis set group =>   2
Atom  16C    basis set group =>   1
Atom  17H    basis set group =>   2
Atom  18H    basis set group =>   2
Atom  19H    basis set group =>   2
Atom  20C    basis set group =>   1
Atom  21H    basis set group =>   2
Atom  22H    basis set group =>   2
Atom  23H    basis set group =>   2
Atom  24Au   basis set group =>   4
Atom  25P    basis set group =>   5
Atom  26H    basis set group =>   2
Atom  27H    basis set group =>   2
Atom  28H    basis set group =>   2
----------------------------------
AUXILIARY/JK BASIS SET INFORMATION
----------------------------------
There are 5 groups of distinct atoms

 Group   1 Type C   : 14s10p6d2f1g contracted to 10s8p5d1f1g pattern {5111111111/31111111/21111/2/1}
 Group   2 Type H   : 4s2p2d contracted to 2s2p2d pattern {31/11/11}
 Group   3 Type O   : 14s10p6d2f1g contracted to 10s8p4d2f1g pattern {5111111111/31111111/3111/11/1}
 Group   4 Type Au  : 13s12p11d9f5g3h2i contracted to 13s11p10d8f4g3h2i pattern {1111111111111/21111111111/2111111111/21111111/2111/111/11}
 Group   5 Type P   : 16s12p10d4f1g contracted to 13s11p9d4f1g pattern {4111111111111/21111111111/211111111/1111/1}

Atom   0C    basis set group =>   1
Atom   1C    basis set group =>   1
Atom   2C    basis set group =>   1
Atom   3H    basis set group =>   2
Atom   4H    basis set group =>   2
Atom   5H    basis set group =>   2
Atom   6C    basis set group =>   1
Atom   7O    basis set group =>   3
Atom   8C    basis set group =>   1
Atom   9O    basis set group =>   3
Atom  10C    basis set group =>   1
Atom  11O    basis set group =>   3
Atom  12C    basis set group =>   1
Atom  13H    basis set group =>   2
Atom  14H    basis set group =>   2
Atom  15H    basis set group =>   2
Atom  16C    basis set group =>   1
Atom  17H    basis set group =>   2
Atom  18H    basis set group =>   2
Atom  19H    basis set group =>   2
Atom  20C    basis set group =>   1
Atom  21H    basis set group =>   2
Atom  22H    basis set group =>   2
Atom  23H    basis set group =>   2
Atom  24Au   basis set group =>   4
Atom  25P    basis set group =>   5
Atom  26H    basis set group =>   2
Atom  27H    basis set group =>   2
Atom  28H    basis set group =>   2
-------------------------
ECP PARAMETER INFORMATION
-------------------------

 Group 1, Type Au ECP Def2-ECP (replacing 60 core electrons, lmax=3)

Atom  24Au   ECP group =>   1



           ************************************************************
           *        Program running with 24 parallel MPI-processes    *
           *              working on a common directory               *
           ************************************************************
------------------------------------------------------------------------------
                           ORCA GTO INTEGRAL CALCULATION
                           -- RI-GTO INTEGRALS CHOSEN --
------------------------------------------------------------------------------

                         BASIS SET STATISTICS AND STARTUP INFO

Gaussian basis set:
 # of primitive gaussian shells          ...  456
 # of primitive gaussian functions       ... 1072
 # of contracted shells                  ...  297
 # of contracted basis functions         ...  815
 Highest angular momentum                ...    4
 Maximum contraction depth               ...    7
Auxiliary gaussian basis set:
 # of primitive gaussian shells          ...  614
 # of primitive gaussian functions       ... 1874
 # of contracted shells                  ...  479
 # of contracted aux-basis functions     ... 1551
 Highest angular momentum                ...    6
 Maximum contraction depth               ...    5
Ratio of auxiliary to basis functions    ...  1.90
Integral package used                  ... LIBINT
 One Electron integrals                  
   ECP integrals                         ... done
 Ordering auxiliary basis shells         ... done
 Integral threshhold             Thresh  ...  1.000e-10
 Primitive cut-off               TCut    ...  1.000e-11
 Pre-screening matrix                    ... done
 Shell pair data                         ... 
 Ordering of the shell pairs             ... done (   0.007 sec) 36466 of 44253 pairs
 Determination of significant pairs      ... done (   0.000 sec)
 Creation of shell pair data             ... done (   0.003 sec)
 Storage of shell pair data              ... done (   0.007 sec)
 Shell pair data done in (   0.017 sec)
 Computing two index integrals           ... done
 Cholesky decomposition of the V-matrix  ... done


Timings:
 Total evaluation time                   ...   3.056 sec (  0.051 min)
 One electron matrix time                ...   2.413 sec (  0.040 min) = 78.9%
 Schwartz matrix evaluation time         ...   0.359 sec (  0.006 min) = 11.7%
 Two index repulsion integral time       ...   0.121 sec (  0.002 min) =  4.0%
 Cholesky decomposition of V             ...   0.113 sec (  0.002 min) =  3.7%
 Three index repulsion integral time     ...   0.000 sec (  0.000 min) =  0.0%



           ************************************************************
           *        Program running with 24 parallel MPI-processes    *
           *              working on a common directory               *
           ************************************************************
-------------------------------------------------------------------------------
                                 ORCA SCF
-------------------------------------------------------------------------------

------------
SCF SETTINGS
------------
Hamiltonian:
 Density Functional     Method          .... DFT(GTOs)
 Exchange Functional    Exchange        .... B88
   X-Alpha parameter    XAlpha          ....  0.666667
   Becke's b parameter  XBeta           ....  0.004200
 Correlation Functional Correlation     .... LYP
 LDA part of GGA corr.  LDAOpt          .... VWN-5
 Gradients option       PostSCFGGA      .... off
 Hybrid DFT is turned on
   Fraction HF Exchange ScalHFX         ....  0.710000
   Scaling of DF-GGA-X  ScalDFX         ....  0.290000
   Scaling of DF-GGA-C  ScalDFC         ....  0.540000
   Scaling of DF-LDA-C  ScalLDAC        ....  0.540000
   Perturbative correction              ....  1.000000
   Density functional embedding theory  .... OFF
 RI-approximation to the Coulomb term is turned on
   Number of auxiliary basis functions  .... 1551
   RI-JK (J+K treated both via RI)      .... on


General Settings:
 Integral files         IntName         .... TMB29_C2
 Hartree-Fock type      HFTyp           .... RHF
 Total Charge           Charge          ....    1
 Multiplicity           Mult            ....    1
 Number of Electrons    NEL             ....  126
 Basis Dimension        Dim             ....  815
 Nuclear Repulsion      ENuc            ....   1217.2558935493 Eh

Convergence Acceleration:
 DIIS                   CNVDIIS         .... on
   Start iteration      DIISMaxIt       ....    12
   Startup error        DIISStart       ....  0.200000
   # of expansion vecs  DIISMaxEq       ....     5
   Bias factor          DIISBfac        ....   1.050
   Max. coefficient     DIISMaxC        ....  10.000
 Newton-Raphson         CNVNR           .... off
 SOSCF                  CNVSOSCF        .... off
 Level Shifting         CNVShift        .... on
   Level shift para.    LevelShift      ....    0.2500
   Turn off err/grad.   ShiftErr        ....    0.0010
 Zerner damping         CNVZerner       .... off
 Static damping         CNVDamp         .... on
   Fraction old density DampFac         ....    0.7000
   Max. Damping (<1)    DampMax         ....    0.9800
   Min. Damping (>=0)   DampMin         ....    0.0000
   Turn off err/grad.   DampErr         ....    0.1000
 Fernandez-Rico         CNVRico         .... off

SCF Procedure:
 Maximum # iterations   MaxIter         ....   125
 SCF integral mode      SCFMode         .... Direct
   Integral package                     .... LIBINT
 Reset frequency        DirectResetFreq ....    20
 Integral Threshold     Thresh          ....  1.000e-10 Eh
 Primitive CutOff       TCut            ....  1.000e-11 Eh

Convergence Tolerance:
 Convergence Check Mode ConvCheckMode   .... Total+1el-Energy
 Convergence forced     ConvForced      .... 0
 Energy Change          TolE            ....  1.000e-06 Eh
 1-El. energy change                    ....  1.000e-03 Eh
 DIIS Error             TolErr          ....  1.000e-06


Diagonalization of the overlap matrix:
Smallest eigenvalue                        ... 4.943e-07
Time for diagonalization                   ...    0.129 sec
Threshold for overlap eigenvalues          ... 1.000e-08
Number of eigenvalues below threshold      ... 0
Time for construction of square roots      ...    0.083 sec
Total time needed                          ...    0.215 sec

-------------------
DFT GRID GENERATION
-------------------

General Integration Accuracy     IntAcc      ...  4.670
Radial Grid Type                 RadialGrid  ... Gauss-Chebyshev
Angular Grid (max. acc.)         AngularGrid ... Lebedev-302
Angular grid pruning method      GridPruning ... 3 (G Style)
Weight generation scheme         WeightScheme... Becke
Basis function cutoff            BFCut       ...    1.0000e-10
Integration weight cutoff        WCut        ...    1.0000e-14
Grids for H and He will be reduced by one unit

# of grid points (after initial pruning)     ... 143952 (   0.0 sec)
# of grid points (after weights+screening)   ... 127899 (   0.1 sec)
nearest neighbour list constructed           ...    0.0 sec
Grid point re-assignment to atoms done       ...    0.0 sec
Grid point division into batches done        ...    0.4 sec
Reduced shell lists constructed in    0.9 sec

Total number of grid points                  ...   127899
Total number of batches                      ...     2016
Average number of points per batch           ...       63
Average number of grid points per atom       ...     4410
Average number of shells per batch           ...   189.35 (63.76%)
Average number of basis functions per batch  ...   525.78 (64.51%)
Average number of large shells per batch     ...   148.74 (78.55%)
Average number of large basis fcns per batch ...   410.04 (77.99%)
Average number of aux-shells per batch       ...   189.35 (39.53%)
Average number of aux functions per batch    ...   525.78 (33.90%)
Maximum spatial batch extension              ...   2.56,  2.79,  2.54 au
Average spatial batch extension              ...   0.05,  0.05,  0.05 au

Time for grid setup =    1.083 sec

------------------------------
INITIAL GUESS: MODEL POTENTIAL
------------------------------
Loading Hartree-Fock densities                     ... done
  calling /sw/apps/orca/orca_4_2_0_linux_x86-64_openmpi314/orca TMB29_C2_atom79.inp > TMB29_C2_atom79.out in order to generate an atomic fitting density for atom 24 (Au with ECP) on-the-fly... 
    atom 24 (Au), assumed electronic state with S=2: 1s2 2s2 2p6 3s2 3p6 4s2 3d10 4p6 5s2 4d10 5p6 6s1 4f14 5d10           ... done
Calculating cut-offs                               ... done
Setting up the integral package                    ... done
Initializing the effective Hamiltonian             ... done
Starting the Coulomb interaction                   ... done (   0.1 sec)
Reading the grid                                   ... done
Mapping shells                                     ... done
Starting the XC term evaluation                    ... done (   0.3 sec)
  promolecular density results
     # of electrons  =    186.994209790
     EX              =   -465.418386633
     EC              =     -0.973752718
     EX+EC           =   -466.392139351
Transforming the Hamiltonian                       ... done (   0.1 sec)
Diagonalizing the Hamiltonian                      ... done (   0.1 sec)
Back transforming the eigenvectors                 ... done (   0.0 sec)
Now organizing SCF variables                       ... done
                      ------------------
                      INITIAL GUESS DONE (   3.0 sec)
                      ------------------
--------------
SCF ITERATIONS
--------------
ITER       Energy         Delta-E        Max-DP      RMS-DP      [F,P]     Damp
  0  -1051.5817210622   0.000000000000 2.40260034  0.00628260  0.5335400 0.7000
  1  -1051.4214694432   0.160251618976 1.78884968  0.00465779  0.3910467 0.7000
  2  -1051.5648275396  -0.143358096376 1.35476867  0.00337964  0.2700176 0.7000
                               ***Turning on DIIS***
  3  -1051.7985673413  -0.233739801761 1.01497474  0.00252112  0.1864491 0.7000
  4  -1051.9969170748  -0.198349733436 0.73277226  0.00189140  0.1296516 0.7000
  5  -1052.1035418744  -0.106624799656 1.54876327  0.00437908  0.0903915 0.0000
  6  -1052.1663642130  -0.062822338618 0.18259578  0.00056890  0.0197280 0.0000
  7  -1052.1678461713  -0.001481958223 0.08398869  0.00024364  0.0086733 0.0000
  8  -1052.1681234508  -0.000277279565 0.12335813  0.00031632  0.0057306 0.0000
  9  -1052.1682696090  -0.000146158201 0.06365351  0.00019761  0.0026488 0.0000
 10  -1052.1683157985  -0.000046189424 0.04077938  0.00012567  0.0011764 0.0000
 11  -1052.1683239013  -0.000008102813 0.13268664  0.00033978  0.0003878 0.0000
 12  -1052.1683267026  -0.000002801292 0.13998712  0.00031632  0.0001885 0.0000
 13  -1052.1683270693  -0.000000366774 0.02943966  0.00008307  0.0000716 0.0000
                 **** Energy Check signals convergence ****

               *****************************************************
               *                     SUCCESS                       *
               *           SCF CONVERGED AFTER  14 CYCLES          *
               *****************************************************


----------------
TOTAL SCF ENERGY
----------------

Total Energy       :        -1052.16832711 Eh          -28630.95575 eV

Components:
Nuclear Repulsion  :         1217.25589355 Eh           33123.21682 eV
Electronic Energy  :        -2269.42422066 Eh          -61754.17257 eV
One Electron Energy:        -3898.45027969 Eh         -106082.22523 eV
Two Electron Energy:         1629.02605903 Eh           44328.05266 eV

Virial components:
Potential Energy   :        -2012.94645739 Eh          -54775.05782 eV
Kinetic Energy     :          960.77813028 Eh           26144.10207 eV
Virial Ratio       :            2.09512102


DFT components:
N(Alpha)           :       62.999939014855 electrons
N(Beta)            :       62.999939014855 electrons
N(Total)           :      125.999878029710 electrons
E(X)               :      -32.337669725208 Eh       
E(C)               :       -2.394715325678 Eh       
E(XC)              :      -34.732385050885 Eh       
DFET-embed. en.    :        0.000000000000 Eh       

---------------
SCF CONVERGENCE
---------------

  Last Energy change         ...   -4.1345e-08  Tolerance :   1.0000e-06
  Last MAX-Density change    ...    5.0541e-02  Tolerance :   1.0000e-05
  Last RMS-Density change    ...    1.0093e-04  Tolerance :   1.0000e-06
  Last DIIS Error            ...    4.1173e-05  Tolerance :   1.0000e-06

             **** THE GBW FILE WAS UPDATED (TMB29_C2.gbw) ****
             **** DENSITY FILE WAS UPDATED (TMB29_C2.scfp) ****
             **** ENERGY FILE WAS UPDATED (TMB29_C2.en.tmp) ****
             **** THE GBW FILE WAS UPDATED (TMB29_C2.gbw) ****
             **** DENSITY FILE WAS UPDATED (TMB29_C2.scfp) ****
----------------
ORBITAL ENERGIES
----------------

  NO   OCC          E(Eh)            E(eV) 
   0   2.0000     -79.069107     -2151.5798 
   1   2.0000     -20.300931      -552.4164 
   2   2.0000     -20.296436      -552.2941 
   3   2.0000     -20.173920      -548.9603 
   4   2.0000     -11.215208      -305.1813 
   5   2.0000     -11.097205      -301.9703 
   6   2.0000     -11.089944      -301.7727 
   7   2.0000     -11.051137      -300.7167 
   8   2.0000     -11.030855      -300.1648 
   9   2.0000     -10.984209      -298.8955 
  10   2.0000     -10.980621      -298.7979 
  11   2.0000     -10.979303      -298.7620 
  12   2.0000     -10.955246      -298.1074 
  13   2.0000      -7.308262      -198.8679 
  14   2.0000      -5.300002      -144.2204 
  15   2.0000      -5.299979      -144.2198 
  16   2.0000      -5.298524      -144.1802 
  17   2.0000      -4.643319      -126.3511 
  18   2.0000      -2.734340       -74.4052 
  19   2.0000      -2.721284       -74.0499 
  20   2.0000      -2.720734       -74.0349 
  21   2.0000      -1.592071       -43.3224 
  22   2.0000      -1.470700       -40.0198 
  23   2.0000      -1.413075       -38.4517 
  24   2.0000      -1.182798       -32.1856 
  25   2.0000      -1.096252       -29.8305 
  26   2.0000      -1.085032       -29.5252 
  27   2.0000      -1.050828       -28.5945 
  28   2.0000      -0.987224       -26.8637 
  29   2.0000      -0.949440       -25.8356 
  30   2.0000      -0.939015       -25.5519 
  31   2.0000      -0.931815       -25.3560 
  32   2.0000      -0.878436       -23.9035 
  33   2.0000      -0.858327       -23.3563 
  34   2.0000      -0.810408       -22.0523 
  35   2.0000      -0.775130       -21.0924 
  36   2.0000      -0.739798       -20.1309 
  37   2.0000      -0.711417       -19.3586 
  38   2.0000      -0.705682       -19.2026 
  39   2.0000      -0.700457       -19.0604 
  40   2.0000      -0.693517       -18.8716 
  41   2.0000      -0.685825       -18.6622 
  42   2.0000      -0.678817       -18.4715 
  43   2.0000      -0.671838       -18.2816 
  44   2.0000      -0.666636       -18.1401 
  45   2.0000      -0.645189       -17.5565 
  46   2.0000      -0.641156       -17.4468 
  47   2.0000      -0.637674       -17.3520 
  48   2.0000      -0.634637       -17.2693 
  49   2.0000      -0.626575       -17.0500 
  50   2.0000      -0.618792       -16.8382 
  51   2.0000      -0.616254       -16.7691 
  52   2.0000      -0.608756       -16.5651 
  53   2.0000      -0.593360       -16.1462 
  54   2.0000      -0.582284       -15.8448 
  55   2.0000      -0.547071       -14.8866 
  56   2.0000      -0.533380       -14.5140 
  57   2.0000      -0.530731       -14.4419 
  58   2.0000      -0.529622       -14.4118 
  59   2.0000      -0.505385       -13.7522 
  60   2.0000      -0.489406       -13.3174 
  61   2.0000      -0.442699       -12.0465 
  62   2.0000      -0.439466       -11.9585 
  63   0.0000      -0.108622        -2.9558 
  64   0.0000      -0.079119        -2.1529 
  65   0.0000      -0.076657        -2.0860 
  66   0.0000      -0.065646        -1.7863 
  67   0.0000      -0.057693        -1.5699 
  68   0.0000      -0.051510        -1.4017 
  69   0.0000      -0.041349        -1.1252 
  70   0.0000      -0.037303        -1.0151 
  71   0.0000      -0.037173        -1.0115 
  72   0.0000      -0.019091        -0.5195 
  73   0.0000      -0.016410        -0.4465 
  74   0.0000      -0.012268        -0.3338 
  75   0.0000      -0.006990        -0.1902 
  76   0.0000      -0.004484        -0.1220 
  77   0.0000      -0.001923        -0.0523 
  78   0.0000       0.002116         0.0576 
  79   0.0000       0.006050         0.1646 
  80   0.0000       0.008324         0.2265 
  81   0.0000       0.010319         0.2808 
  82   0.0000       0.015061         0.4098 
  83   0.0000       0.018892         0.5141 
  84   0.0000       0.031433         0.8553 
  85   0.0000       0.032595         0.8869 
  86   0.0000       0.034865         0.9487 
  87   0.0000       0.040766         1.1093 
  88   0.0000       0.043056         1.1716 
  89   0.0000       0.051058         1.3894 
  90   0.0000       0.055829         1.5192 
  91   0.0000       0.058413         1.5895 
  92   0.0000       0.063280         1.7219 
  93   0.0000       0.068212         1.8561 
  94   0.0000       0.075693         2.0597 
  95   0.0000       0.078397         2.1333 
  96   0.0000       0.083171         2.2632 
  97   0.0000       0.086770         2.3611 
  98   0.0000       0.089949         2.4476 
  99   0.0000       0.098920         2.6917 
 100   0.0000       0.104699         2.8490 
 101   0.0000       0.108225         2.9450 
 102   0.0000       0.112737         3.0677 
 103   0.0000       0.119038         3.2392 
 104   0.0000       0.120078         3.2675 
 105   0.0000       0.126581         3.4445 
 106   0.0000       0.129549         3.5252 
 107   0.0000       0.138685         3.7738 
 108   0.0000       0.142947         3.8898 
 109   0.0000       0.144190         3.9236 
 110   0.0000       0.149141         4.0583 
 111   0.0000       0.150475         4.0946 
 112   0.0000       0.156412         4.2562 
 113   0.0000       0.158962         4.3256 
 114   0.0000       0.162441         4.4203 
 115   0.0000       0.164096         4.4653 
 116   0.0000       0.168163         4.5760 
 117   0.0000       0.169739         4.6188 
 118   0.0000       0.174462         4.7473 
 119   0.0000       0.177949         4.8422 
 120   0.0000       0.180898         4.9225 
 121   0.0000       0.184621         5.0238 
 122   0.0000       0.185280         5.0417 
 123   0.0000       0.189160         5.1473 
 124   0.0000       0.191306         5.2057 
 125   0.0000       0.198790         5.4093 
 126   0.0000       0.199481         5.4281 
 127   0.0000       0.204429         5.5628 
 128   0.0000       0.205991         5.6053 
 129   0.0000       0.208275         5.6674 
 130   0.0000       0.210319         5.7231 
 131   0.0000       0.214074         5.8253 
 132   0.0000       0.218378         5.9424 
 133   0.0000       0.219607         5.9758 
 134   0.0000       0.220816         6.0087 
 135   0.0000       0.222913         6.0658 
 136   0.0000       0.228183         6.2092 
 137   0.0000       0.231054         6.2873 
 138   0.0000       0.233614         6.3570 
 139   0.0000       0.235988         6.4216 
 140   0.0000       0.240068         6.5326 
 141   0.0000       0.243691         6.6312 
 142   0.0000       0.244843         6.6625 
 143   0.0000       0.247284         6.7289 
 144   0.0000       0.256580         6.9819 
 145   0.0000       0.261782         7.1234 
 146   0.0000       0.264982         7.2105 
 147   0.0000       0.268175         7.2974 
 148   0.0000       0.273586         7.4447 
 149   0.0000       0.274874         7.4797 
 150   0.0000       0.277432         7.5493 
 151   0.0000       0.279641         7.6094 
 152   0.0000       0.282830         7.6962 
 153   0.0000       0.287995         7.8367 
 154   0.0000       0.289633         7.8813 
 155   0.0000       0.292551         7.9607 
 156   0.0000       0.297705         8.1010 
 157   0.0000       0.301019         8.1911 
 158   0.0000       0.304806         8.2942 
 159   0.0000       0.306445         8.3388 
 160   0.0000       0.311617         8.4795 
 161   0.0000       0.317605         8.6425 
 162   0.0000       0.321777         8.7560 
 163   0.0000       0.323220         8.7953 
 164   0.0000       0.327082         8.9004 
 165   0.0000       0.328647         8.9430 
 166   0.0000       0.330288         8.9876 
 167   0.0000       0.333931         9.0867 
 168   0.0000       0.337267         9.1775 
 169   0.0000       0.338042         9.1986 
 170   0.0000       0.347422         9.4538 
 171   0.0000       0.348245         9.4762 
 172   0.0000       0.351374         9.5614 
 173   0.0000       0.358597         9.7579 
 174   0.0000       0.363107         9.8806 
 175   0.0000       0.367781        10.0078 
 176   0.0000       0.369626        10.0580 
 177   0.0000       0.372475        10.1356 
 178   0.0000       0.374690        10.1958 
 179   0.0000       0.377543        10.2735 
 180   0.0000       0.379805        10.3350 
 181   0.0000       0.384156        10.4534 
 182   0.0000       0.385868        10.5000 
 183   0.0000       0.394553        10.7363 
 184   0.0000       0.396479        10.7887 
 185   0.0000       0.397159        10.8072 
 186   0.0000       0.404826        11.0159 
 187   0.0000       0.408664        11.1203 
 188   0.0000       0.410774        11.1777 
 189   0.0000       0.416564        11.3353 
 190   0.0000       0.419387        11.4121 
 191   0.0000       0.423832        11.5331 
 192   0.0000       0.425094        11.5674 
 193   0.0000       0.433931        11.8079 
 194   0.0000       0.436243        11.8708 
 195   0.0000       0.441513        12.0142 
 196   0.0000       0.443043        12.0558 
 197   0.0000       0.447577        12.1792 
 198   0.0000       0.450947        12.2709 
 199   0.0000       0.456484        12.4216 
 200   0.0000       0.458304        12.4711 
 201   0.0000       0.463217        12.6048 
 202   0.0000       0.465659        12.6712 
 203   0.0000       0.469606        12.7786 
 204   0.0000       0.475057        12.9270 
 205   0.0000       0.481417        13.1000 
 206   0.0000       0.487458        13.2644 
 207   0.0000       0.489493        13.3198 
 208   0.0000       0.493687        13.4339 
 209   0.0000       0.496119        13.5001 
 210   0.0000       0.499545        13.5933 
 211   0.0000       0.506584        13.7848 
 212   0.0000       0.512546        13.9471 
 213   0.0000       0.513837        13.9822 
 214   0.0000       0.521839        14.2000 
 215   0.0000       0.522344        14.2137 
 216   0.0000       0.525908        14.3107 
 217   0.0000       0.530797        14.4437 
 218   0.0000       0.534223        14.5369 
 219   0.0000       0.538172        14.6444 
 220   0.0000       0.545318        14.8388 
 221   0.0000       0.550760        14.9869 
 222   0.0000       0.553836        15.0707 
 223   0.0000       0.561805        15.2875 
 224   0.0000       0.565758        15.3951 
 225   0.0000       0.571463        15.5503 
 226   0.0000       0.575120        15.6498 
 227   0.0000       0.579417        15.7667 
 228   0.0000       0.593954        16.1623 
 229   0.0000       0.595891        16.2150 
 230   0.0000       0.597429        16.2569 
 231   0.0000       0.599857        16.3229 
 232   0.0000       0.605021        16.4635 
 233   0.0000       0.611432        16.6379 
 234   0.0000       0.612509        16.6672 
 235   0.0000       0.618447        16.8288 
 236   0.0000       0.622988        16.9524 
 237   0.0000       0.626968        17.0607 
 238   0.0000       0.634041        17.2531 
 239   0.0000       0.636710        17.3257 
 240   0.0000       0.641931        17.4678 
 241   0.0000       0.648300        17.6411 
 242   0.0000       0.654449        17.8085 
 243   0.0000       0.658633        17.9223 
 244   0.0000       0.659436        17.9442 
 245   0.0000       0.662402        18.0249 
 246   0.0000       0.671487        18.2721 
 247   0.0000       0.675511        18.3816 
 248   0.0000       0.682258        18.5652 
 249   0.0000       0.684757        18.6332 
 250   0.0000       0.689779        18.7698 
 251   0.0000       0.693274        18.8649 
 252   0.0000       0.698500        19.0072 
 253   0.0000       0.703735        19.1496 
 254   0.0000       0.710907        19.3448 
 255   0.0000       0.712807        19.3965 
 256   0.0000       0.714863        19.4524 
 257   0.0000       0.717709        19.5299 
 258   0.0000       0.720143        19.5961 
 259   0.0000       0.728617        19.8267 
 260   0.0000       0.735601        20.0167 
 261   0.0000       0.740153        20.1406 
 262   0.0000       0.744438        20.2572 
 263   0.0000       0.746412        20.3109 
 264   0.0000       0.751416        20.4471 
 265   0.0000       0.756297        20.5799 
 266   0.0000       0.763470        20.7751 
 267   0.0000       0.768052        20.8998 
 268   0.0000       0.771392        20.9907 
 269   0.0000       0.772540        21.0219 
 270   0.0000       0.781099        21.2548 
 271   0.0000       0.786104        21.3910 
 272   0.0000       0.793249        21.5854 
 273   0.0000       0.794235        21.6122 
 274   0.0000       0.796746        21.6806 
 275   0.0000       0.806963        21.9586 
 276   0.0000       0.810077        22.0433 
 277   0.0000       0.812059        22.0972 
 278   0.0000       0.821333        22.3496 
 279   0.0000       0.837852        22.7991 
 280   0.0000       0.842728        22.9318 
 281   0.0000       0.845756        23.0142 
 282   0.0000       0.852924        23.2092 
 283   0.0000       0.855520        23.2799 
 284   0.0000       0.862838        23.4790 
 285   0.0000       0.867494        23.6057 
 286   0.0000       0.876227        23.8434 
 287   0.0000       0.877099        23.8671 
 288   0.0000       0.879013        23.9192 
 289   0.0000       0.890607        24.2347 
 290   0.0000       0.890963        24.2443 
 291   0.0000       0.900154        24.4944 
 292   0.0000       0.903701        24.5909 
 293   0.0000       0.911114        24.7927 
 294   0.0000       0.919985        25.0341 
 295   0.0000       0.927902        25.2495 
 296   0.0000       0.937805        25.5190 
 297   0.0000       0.940764        25.5995 
 298   0.0000       0.944923        25.7127 
 299   0.0000       0.953988        25.9593 
 300   0.0000       0.962522        26.1916 
 301   0.0000       0.976992        26.5853 
 302   0.0000       0.988066        26.8866 
 303   0.0000       0.994347        27.0576 
 304   0.0000       1.003228        27.2992 
 305   0.0000       1.005780        27.3687 
 306   0.0000       1.014378        27.6026 
 307   0.0000       1.022776        27.8312 
 308   0.0000       1.028613        27.9900 
 309   0.0000       1.036706        28.2102 
 310   0.0000       1.039384        28.2831 
 311   0.0000       1.043373        28.3916 
 312   0.0000       1.065903        29.0047 
 313   0.0000       1.068049        29.0631 
 314   0.0000       1.081623        29.4325 
 315   0.0000       1.083785        29.4913 
 316   0.0000       1.090451        29.6727 
 317   0.0000       1.093432        29.7538 
 318   0.0000       1.103704        30.0333 
 319   0.0000       1.121329        30.5129 
 320   0.0000       1.132468        30.8160 
 321   0.0000       1.138933        30.9920 
 322   0.0000       1.147369        31.2215 
 323   0.0000       1.151501        31.3339 
 324   0.0000       1.157472        31.4964 
 325   0.0000       1.161805        31.6143 
 326   0.0000       1.175281        31.9810 
 327   0.0000       1.178619        32.0718 
 328   0.0000       1.191687        32.4275 
 329   0.0000       1.196602        32.5612 
 330   0.0000       1.199399        32.6373 
 331   0.0000       1.203001        32.7353 
 332   0.0000       1.211734        32.9730 
 333   0.0000       1.224619        33.3236 
 334   0.0000       1.225835        33.3567 
 335   0.0000       1.238399        33.6986 
 336   0.0000       1.246425        33.9169 
 337   0.0000       1.248133        33.9634 
 338   0.0000       1.251374        34.0516 
 339   0.0000       1.259775        34.2802 
 340   0.0000       1.262730        34.3606 
 341   0.0000       1.266657        34.4675 
 342   0.0000       1.278747        34.7965 
 343   0.0000       1.287880        35.0450 
 344   0.0000       1.297612        35.3098 
 345   0.0000       1.298496        35.3339 
 346   0.0000       1.303887        35.4806 
 347   0.0000       1.309853        35.6429 
 348   0.0000       1.317468        35.8501 
 349   0.0000       1.322513        35.9874 
 350   0.0000       1.329765        36.1847 
 351   0.0000       1.338276        36.4164 
 352   0.0000       1.341516        36.5045 
 353   0.0000       1.347414        36.6650 
 354   0.0000       1.352011        36.7901 
 355   0.0000       1.370624        37.2966 
 356   0.0000       1.372599        37.3503 
 357   0.0000       1.375718        37.4352 
 358   0.0000       1.384936        37.6860 
 359   0.0000       1.387377        37.7525 
 360   0.0000       1.393032        37.9063 
 361   0.0000       1.396108        37.9900 
 362   0.0000       1.400813        38.1181 
 363   0.0000       1.409850        38.3640 
 364   0.0000       1.419381        38.6233 
 365   0.0000       1.423654        38.7396 
 366   0.0000       1.441933        39.2370 
 367   0.0000       1.447882        39.3989 
 368   0.0000       1.451689        39.5025 
 369   0.0000       1.463564        39.8256 
 370   0.0000       1.476780        40.1852 
 371   0.0000       1.485345        40.4183 
 372   0.0000       1.489027        40.5185 
 373   0.0000       1.503184        40.9037 
 374   0.0000       1.512379        41.1539 
 375   0.0000       1.521435        41.4003 
 376   0.0000       1.529597        41.6225 
 377   0.0000       1.533624        41.7320 
 378   0.0000       1.538230        41.8574 
 379   0.0000       1.546194        42.0741 
 380   0.0000       1.552370        42.2421 
 381   0.0000       1.560443        42.4618 
 382   0.0000       1.573926        42.8287 
 383   0.0000       1.587518        43.1986 
 384   0.0000       1.600056        43.5397 
 385   0.0000       1.604579        43.6628 
 386   0.0000       1.611484        43.8507 
 387   0.0000       1.620694        44.1013 
 388   0.0000       1.625890        44.2427 
 389   0.0000       1.637172        44.5497 
 390   0.0000       1.638766        44.5931 
 391   0.0000       1.644412        44.7467 
 392   0.0000       1.650157        44.9030 
 393   0.0000       1.654806        45.0296 
 394   0.0000       1.662287        45.2331 
 395   0.0000       1.664206        45.2854 
 396   0.0000       1.669076        45.4179 
 397   0.0000       1.677067        45.6353 
 398   0.0000       1.680771        45.7361 
 399   0.0000       1.685236        45.8576 
 400   0.0000       1.688451        45.9451 
 401   0.0000       1.701021        46.2871 
 402   0.0000       1.711749        46.5790 
 403   0.0000       1.722529        46.8724 
 404   0.0000       1.732285        47.1379 
 405   0.0000       1.739681        47.3391 
 406   0.0000       1.748334        47.5746 
 407   0.0000       1.752617        47.6911 
 408   0.0000       1.756775        47.8043 
 409   0.0000       1.762265        47.9537 
 410   0.0000       1.778006        48.3820 
 411   0.0000       1.781348        48.4729 
 412   0.0000       1.787677        48.6452 
 413   0.0000       1.800039        48.9815 
 414   0.0000       1.811420        49.2912 
 415   0.0000       1.822319        49.5878 
 416   0.0000       1.827424        49.7267 
 417   0.0000       1.843533        50.1651 
 418   0.0000       1.858822        50.5811 
 419   0.0000       1.869220        50.8641 
 420   0.0000       1.891498        51.4703 
 421   0.0000       1.899169        51.6790 
 422   0.0000       1.907169        51.8967 
 423   0.0000       1.932949        52.5982 
 424   0.0000       1.946705        52.9725 
 425   0.0000       1.961563        53.3768 
 426   0.0000       1.966160        53.5019 
 427   0.0000       1.974800        53.7370 
 428   0.0000       1.985827        54.0371 
 429   0.0000       2.000320        54.4315 
 430   0.0000       2.011812        54.7442 
 431   0.0000       2.017891        54.9096 
 432   0.0000       2.027794        55.1791 
 433   0.0000       2.043795        55.6145 
 434   0.0000       2.056646        55.9642 
 435   0.0000       2.060773        56.0765 
 436   0.0000       2.077320        56.5267 
 437   0.0000       2.096170        57.0397 
 438   0.0000       2.115858        57.5754 
 439   0.0000       2.124207        57.8026 
 440   0.0000       2.131261        57.9946 
 441   0.0000       2.144909        58.3659 
 442   0.0000       2.167141        58.9709 
 443   0.0000       2.171662        59.0939 
 444   0.0000       2.174986        59.1844 
 445   0.0000       2.192442        59.6594 
 446   0.0000       2.198920        59.8357 
 447   0.0000       2.213089        60.2212 
 448   0.0000       2.218681        60.3734 
 449   0.0000       2.233990        60.7899 
 450   0.0000       2.248848        61.1943 
 451   0.0000       2.270669        61.7880 
 452   0.0000       2.311077        62.8876 
 453   0.0000       2.315472        63.0072 
 454   0.0000       2.317568        63.0642 
 455   0.0000       2.331886        63.4538 
 456   0.0000       2.340936        63.7001 
 457   0.0000       2.358015        64.1648 
 458   0.0000       2.390267        65.0425 
 459   0.0000       2.417980        65.7966 
 460   0.0000       2.429962        66.1226 
 461   0.0000       2.445349        66.5413 
 462   0.0000       2.472603        67.2829 
 463   0.0000       2.494106        67.8681 
 464   0.0000       2.512986        68.3818 
 465   0.0000       2.514770        68.4304 
 466   0.0000       2.536485        69.0213 
 467   0.0000       2.580639        70.2228 
 468   0.0000       2.586955        70.3946 
 469   0.0000       2.603754        70.8517 
 470   0.0000       2.627224        71.4904 
 471   0.0000       2.635902        71.7265 
 472   0.0000       2.649730        72.1028 
 473   0.0000       2.664603        72.5075 
 474   0.0000       2.685007        73.0628 
 475   0.0000       2.694094        73.3100 
 476   0.0000       2.714399        73.8626 
 477   0.0000       2.757299        75.0299 
 478   0.0000       2.759389        75.0868 
 479   0.0000       2.792923        75.9993 
 480   0.0000       2.807124        76.3857 
 481   0.0000       2.814223        76.5789 
 482   0.0000       2.826497        76.9129 
 483   0.0000       2.830822        77.0306 
 484   0.0000       2.854232        77.6676 
 485   0.0000       2.867025        78.0157 
 486   0.0000       2.870026        78.0974 
 487   0.0000       2.874741        78.2257 
 488   0.0000       2.881023        78.3966 
 489   0.0000       2.890984        78.6677 
 490   0.0000       2.901580        78.9560 
 491   0.0000       2.911094        79.2149 
 492   0.0000       2.924838        79.5889 
 493   0.0000       2.936837        79.9154 
 494   0.0000       2.940587        80.0174 
 495   0.0000       2.945304        80.1458 
 496   0.0000       2.953469        80.3680 
 497   0.0000       2.964027        80.6553 
 498   0.0000       2.973442        80.9115 
 499   0.0000       2.989170        81.3395 
 500   0.0000       2.994489        81.4842 
 501   0.0000       3.005469        81.7830 
 502   0.0000       3.020927        82.2036 
 503   0.0000       3.024800        82.3090 
 504   0.0000       3.036677        82.6322 
 505   0.0000       3.051571        83.0375 
 506   0.0000       3.063613        83.3651 
 507   0.0000       3.071530        83.5806 
 508   0.0000       3.085698        83.9661 
 509   0.0000       3.088652        84.0465 
 510   0.0000       3.108148        84.5770 
 511   0.0000       3.120446        84.9117 
 512   0.0000       3.129357        85.1541 
 513   0.0000       3.134984        85.3072 
 514   0.0000       3.149140        85.6924 
 515   0.0000       3.168356        86.2153 
 516   0.0000       3.177845        86.4736 
 517   0.0000       3.181459        86.5719 
 518   0.0000       3.189876        86.8009 
 519   0.0000       3.203494        87.1715 
 520   0.0000       3.212676        87.4214 
 521   0.0000       3.220379        87.6310 
 522   0.0000       3.231418        87.9314 
 523   0.0000       3.234805        88.0235 
 524   0.0000       3.240123        88.1682 
 525   0.0000       3.241986        88.2189 
 526   0.0000       3.244573        88.2893 
 527   0.0000       3.246499        88.3417 
 528   0.0000       3.251992        88.4912 
 529   0.0000       3.262066        88.7653 
 530   0.0000       3.277115        89.1748 
 531   0.0000       3.286836        89.4394 
 532   0.0000       3.291126        89.5561 
 533   0.0000       3.303825        89.9016 
 534   0.0000       3.310113        90.0728 
 535   0.0000       3.325418        90.4892 
 536   0.0000       3.336435        90.7890 
 537   0.0000       3.345970        91.0485 
 538   0.0000       3.355713        91.3136 
 539   0.0000       3.366747        91.6138 
 540   0.0000       3.374187        91.8163 
 541   0.0000       3.385755        92.1311 
 542   0.0000       3.400360        92.5285 
 543   0.0000       3.408329        92.7454 
 544   0.0000       3.418054        93.0100 
 545   0.0000       3.423638        93.1619 
 546   0.0000       3.428041        93.2817 
 547   0.0000       3.431135        93.3659 
 548   0.0000       3.445816        93.7654 
 549   0.0000       3.449579        93.8678 
 550   0.0000       3.454292        93.9961 
 551   0.0000       3.465065        94.2892 
 552   0.0000       3.472322        94.4867 
 553   0.0000       3.489568        94.9560 
 554   0.0000       3.491313        95.0035 
 555   0.0000       3.506416        95.4144 
 556   0.0000       3.512671        95.5846 
 557   0.0000       3.512897        95.5908 
 558   0.0000       3.522014        95.8389 
 559   0.0000       3.529733        96.0489 
 560   0.0000       3.540466        96.3410 
 561   0.0000       3.545497        96.4779 
 562   0.0000       3.557898        96.8153 
 563   0.0000       3.570949        97.1705 
 564   0.0000       3.581023        97.4446 
 565   0.0000       3.593034        97.7714 
 566   0.0000       3.600826        97.9835 
 567   0.0000       3.610627        98.2501 
 568   0.0000       3.617137        98.4273 
 569   0.0000       3.622648        98.5773 
 570   0.0000       3.630789        98.7988 
 571   0.0000       3.635066        98.9152 
 572   0.0000       3.638067        98.9968 
 573   0.0000       3.644981        99.1850 
 574   0.0000       3.657742        99.5322 
 575   0.0000       3.664067        99.7043 
 576   0.0000       3.670813        99.8879 
 577   0.0000       3.672232        99.9265 
 578   0.0000       3.689390       100.3934 
 579   0.0000       3.700555       100.6972 
 580   0.0000       3.707941       100.8982 
 581   0.0000       3.724762       101.3559 
 582   0.0000       3.726420       101.4010 
 583   0.0000       3.735562       101.6498 
 584   0.0000       3.744112       101.8825 
 585   0.0000       3.747498       101.9746 
 586   0.0000       3.754843       102.1745 
 587   0.0000       3.761968       102.3684 
 588   0.0000       3.773976       102.6951 
 589   0.0000       3.777820       102.7997 
 590   0.0000       3.793118       103.2160 
 591   0.0000       3.801568       103.4459 
 592   0.0000       3.807987       103.6206 
 593   0.0000       3.814370       103.7943 
 594   0.0000       3.817353       103.8755 
 595   0.0000       3.837859       104.4335 
 596   0.0000       3.844209       104.6063 
 597   0.0000       3.847329       104.6912 
 598   0.0000       3.852183       104.8232 
 599   0.0000       3.867778       105.2476 
 600   0.0000       3.873598       105.4060 
 601   0.0000       3.881816       105.6296 
 602   0.0000       3.890351       105.8618 
 603   0.0000       3.900706       106.1436 
 604   0.0000       3.925460       106.8172 
 605   0.0000       3.939607       107.2021 
 606   0.0000       3.946849       107.3992 
 607   0.0000       3.955584       107.6369 
 608   0.0000       3.973782       108.1321 
 609   0.0000       3.986537       108.4792 
 610   0.0000       3.991094       108.6032 
 611   0.0000       4.003044       108.9284 
 612   0.0000       4.022711       109.4635 
 613   0.0000       4.026416       109.5644 
 614   0.0000       4.035951       109.8238 
 615   0.0000       4.041608       109.9777 
 616   0.0000       4.048284       110.1594 
 617   0.0000       4.054039       110.3160 
 618   0.0000       4.061847       110.5285 
 619   0.0000       4.071429       110.7892 
 620   0.0000       4.083208       111.1097 
 621   0.0000       4.089376       111.2776 
 622   0.0000       4.097608       111.5016 
 623   0.0000       4.103167       111.6528 
 624   0.0000       4.106070       111.7319 
 625   0.0000       4.119923       112.1088 
 626   0.0000       4.130453       112.3953 
 627   0.0000       4.139806       112.6498 
 628   0.0000       4.146151       112.8225 
 629   0.0000       4.148842       112.8957 
 630   0.0000       4.153192       113.0141 
 631   0.0000       4.171258       113.5057 
 632   0.0000       4.173379       113.5634 
 633   0.0000       4.177883       113.6860 
 634   0.0000       4.191617       114.0597 
 635   0.0000       4.205262       114.4310 
 636   0.0000       4.207505       114.4920 
 637   0.0000       4.213318       114.6502 
 638   0.0000       4.224472       114.9537 
 639   0.0000       4.233918       115.2108 
 640   0.0000       4.246036       115.5405 
 641   0.0000       4.257218       115.8448 
 642   0.0000       4.261137       115.9514 
 643   0.0000       4.273032       116.2751 
 644   0.0000       4.276591       116.3720 
 645   0.0000       4.287317       116.6638 
 646   0.0000       4.292357       116.8010 
 647   0.0000       4.294371       116.8558 
 648   0.0000       4.298687       116.9732 
 649   0.0000       4.300531       117.0234 
 650   0.0000       4.306102       117.1750 
 651   0.0000       4.308217       117.2325 
 652   0.0000       4.311774       117.3293 
 653   0.0000       4.324805       117.6839 
 654   0.0000       4.331840       117.8754 
 655   0.0000       4.337740       118.0359 
 656   0.0000       4.339670       118.0884 
 657   0.0000       4.343102       118.1818 
 658   0.0000       4.361217       118.6748 
 659   0.0000       4.365813       118.7998 
 660   0.0000       4.376775       119.0981 
 661   0.0000       4.393500       119.5532 
 662   0.0000       4.402458       119.7970 
 663   0.0000       4.409816       119.9972 
 664   0.0000       4.426605       120.4541 
 665   0.0000       4.437259       120.7439 
 666   0.0000       4.452615       121.1618 
 667   0.0000       4.460832       121.3854 
 668   0.0000       4.464928       121.4969 
 669   0.0000       4.472620       121.7062 
 670   0.0000       4.483612       122.0053 
 671   0.0000       4.491330       122.2153 
 672   0.0000       4.510585       122.7393 
 673   0.0000       4.515950       122.8853 
 674   0.0000       4.528213       123.2189 
 675   0.0000       4.547701       123.7492 
 676   0.0000       4.567486       124.2876 
 677   0.0000       4.576611       124.5359 
 678   0.0000       4.594240       125.0156 
 679   0.0000       4.606217       125.3415 
 680   0.0000       4.616496       125.6212 
 681   0.0000       4.619825       125.7118 
 682   0.0000       4.639990       126.2605 
 683   0.0000       4.675146       127.2172 
 684   0.0000       4.687181       127.5447 
 685   0.0000       4.723225       128.5255 
 686   0.0000       4.731864       128.7606 
 687   0.0000       4.733357       128.8012 
 688   0.0000       4.773500       129.8935 
 689   0.0000       4.790195       130.3478 
 690   0.0000       4.822389       131.2239 
 691   0.0000       4.829277       131.4113 
 692   0.0000       4.832995       131.5125 
 693   0.0000       4.841511       131.7442 
 694   0.0000       4.852907       132.0543 
 695   0.0000       4.874765       132.6491 
 696   0.0000       4.888074       133.0113 
 697   0.0000       4.893362       133.1551 
 698   0.0000       4.901418       133.3744 
 699   0.0000       4.927896       134.0949 
 700   0.0000       4.930617       134.1689 
 701   0.0000       4.937205       134.3482 
 702   0.0000       4.969649       135.2310 
 703   0.0000       4.973338       135.3314 
 704   0.0000       4.986063       135.6777 
 705   0.0000       5.000180       136.0618 
 706   0.0000       5.013966       136.4370 
 707   0.0000       5.056330       137.5897 
 708   0.0000       5.066533       137.8674 
 709   0.0000       5.080793       138.2554 
 710   0.0000       5.084824       138.3651 
 711   0.0000       5.142126       139.9244 
 712   0.0000       5.178796       140.9222 
 713   0.0000       5.191310       141.2627 
 714   0.0000       5.201989       141.5533 
 715   0.0000       5.209621       141.7610 
 716   0.0000       5.237264       142.5132 
 717   0.0000       5.258703       143.0966 
 718   0.0000       5.277860       143.6179 
 719   0.0000       5.293923       144.0550 
 720   0.0000       5.301917       144.2725 
 721   0.0000       5.321222       144.7978 
 722   0.0000       5.337285       145.2349 
 723   0.0000       5.380105       146.4001 
 724   0.0000       5.387250       146.5945 
 725   0.0000       5.390118       146.6726 
 726   0.0000       5.406402       147.1157 
 727   0.0000       5.414462       147.3350 
 728   0.0000       5.428692       147.7222 
 729   0.0000       5.436182       147.9260 
 730   0.0000       5.459510       148.5608 
 731   0.0000       5.470167       148.8508 
 732   0.0000       5.480257       149.1254 
 733   0.0000       5.494966       149.5256 
 734   0.0000       5.501865       149.7133 
 735   0.0000       5.530612       150.4956 
 736   0.0000       5.535573       150.6306 
 737   0.0000       5.547303       150.9498 
 738   0.0000       5.581450       151.8790 
 739   0.0000       5.589598       152.1007 
 740   0.0000       5.604317       152.5012 
 741   0.0000       5.616024       152.8198 
 742   0.0000       5.625911       153.0888 
 743   0.0000       5.637819       153.4129 
 744   0.0000       5.653566       153.8414 
 745   0.0000       5.674878       154.4213 
 746   0.0000       5.695755       154.9894 
 747   0.0000       5.714207       155.4915 
 748   0.0000       5.742675       156.2661 
 749   0.0000       5.757927       156.6812 
 750   0.0000       5.790154       157.5581 
 751   0.0000       5.814346       158.2164 
 752   0.0000       5.840007       158.9147 
 753   0.0000       5.852540       159.2557 
 754   0.0000       5.863415       159.5516 
 755   0.0000       5.872534       159.7998 
 756   0.0000       5.875917       159.8918 
 757   0.0000       5.889175       160.2526 
 758   0.0000       5.895641       160.4286 
 759   0.0000       5.917559       161.0250 
 760   0.0000       5.955224       162.0499 
 761   0.0000       5.984285       162.8407 
 762   0.0000       6.003389       163.3605 
 763   0.0000       6.108107       166.2100 
 764   0.0000       6.121912       166.5857 
 765   0.0000       6.184314       168.2837 
 766   0.0000       6.209171       168.9601 
 767   0.0000       6.234348       169.6452 
 768   0.0000       6.259478       170.3290 
 769   0.0000       6.332540       172.3172 
 770   0.0000       6.365123       173.2038 
 771   0.0000       6.489631       176.5918 
 772   0.0000       6.627949       180.3557 
 773   0.0000       6.700331       182.3253 
 774   0.0000       6.765203       184.0905 
 775   0.0000       6.767734       184.1594 
 776   0.0000       6.787773       184.7047 
 777   0.0000       6.828864       185.8228 
 778   0.0000       6.831446       185.8931 
 779   0.0000       6.886369       187.3876 
 780   0.0000       6.937249       188.7721 
 781   0.0000       6.971773       189.7116 
 782   0.0000       7.049772       191.8341 
 783   0.0000       7.127404       193.9465 
 784   0.0000       7.150198       194.5668 
 785   0.0000       7.172938       195.1856 
 786   0.0000       7.229364       196.7210 
 787   0.0000       7.355738       200.1598 
 788   0.0000       7.422401       201.9738 
 789   0.0000       7.494634       203.9394 
 790   0.0000       7.594612       206.6599 
 791   0.0000       7.611539       207.1205 
 792   0.0000       7.787140       211.8989 
 793   0.0000       7.850407       213.6204 
 794   0.0000       8.195982       223.0240 
 795   0.0000       8.204217       223.2481 
 796   0.0000       8.230899       223.9742 
 797   0.0000      16.615404       452.1281 
 798   0.0000      23.447413       638.0365 
 799   0.0000      23.600193       642.1939 
 800   0.0000      23.914352       650.7426 
 801   0.0000      24.103767       655.8969 
 802   0.0000      24.169073       657.6739 
 803   0.0000      24.319583       661.7695 
 804   0.0000      24.368405       663.0980 
 805   0.0000      24.436154       664.9416 
 806   0.0000      24.542630       667.8389 
 807   0.0000      29.597903       805.3999 
 808   0.0000      31.576813       859.2488 
 809   0.0000      35.061540       954.0730 
 810   0.0000      45.032204      1225.3886 
 811   0.0000      45.338458      1233.7222 
 812   0.0000      45.505893      1238.2783 
 813   0.0000      45.556866      1239.6654 
 814   0.0000     203.653705      5541.6990 

                    ********************************
                    * MULLIKEN POPULATION ANALYSIS *
                    ********************************

-----------------------
MULLIKEN ATOMIC CHARGES
-----------------------
   0 C :    0.302936
   1 C :   -0.857879
   2 C :   -0.617447
   3 H :    0.015097
   4 H :    0.140159
   5 H :    0.134162
   6 C :    3.230195
   7 O :   -0.334183
   8 C :    0.925631
   9 O :   -0.373770
  10 C :    0.076393
  11 O :   -0.543238
  12 C :   -0.474294
  13 H :    0.068536
  14 H :    0.103951
  15 H :    0.103850
  16 C :   -0.745684
  17 H :    0.134679
  18 H :    0.127253
  19 H :    0.143237
  20 C :   -0.719139
  21 H :    0.059829
  22 H :   -0.001566
  23 H :    0.112936
  24 Au:   -0.254770
  25 P :    0.049920
  26 H :    0.070929
  27 H :    0.057507
  28 H :    0.064770
Sum of atomic charges:    1.0000000

--------------------------------
MULLIKEN REDUCED ORBITAL CHARGES
--------------------------------
  0 C s       :     3.519660  s :     3.519660
      pz      :     0.810476  p :     2.188886
      px      :     0.654509
      py      :     0.723901
      dz2     :    -0.002353  d :    -0.020761
      dxz     :     0.022595
      dyz     :    -0.013431
      dx2y2   :     0.045493
      dxy     :    -0.073064
      f0      :     0.001217  f :     0.009278
      f+1     :     0.000861
      f-1     :     0.001001
      f+2     :     0.001210
      f-2     :     0.001110
      f+3     :     0.002006
      f-3     :     0.001873
  1 C s       :     3.922809  s :     3.922809
      pz      :     1.142200  p :     2.506015
      px      :     0.137339
      py      :     1.226475
      dz2     :     0.019806  d :     0.414336
      dxz     :     0.019579
      dyz     :     0.026072
      dx2y2   :     0.149942
      dxy     :     0.198938
      f0      :     0.001852  f :     0.014720
      f+1     :     0.001524
      f-1     :     0.001353
      f+2     :     0.001381
      f-2     :     0.001802
      f+3     :     0.003890
      f-3     :     0.002917
  2 C s       :     3.272682  s :     3.272682
      pz      :     1.130012  p :     3.290823
      px      :     1.103370
      py      :     1.057441
      dz2     :     0.020935  d :     0.049652
      dxz     :     0.025791
      dyz     :     0.004146
      dx2y2   :     0.003801
      dxy     :    -0.005021
      f0      :     0.000352  f :     0.004289
      f+1     :     0.000604
      f-1     :     0.000522
      f+2     :     0.000544
      f-2     :     0.000439
      f+3     :     0.000868
      f-3     :     0.000960
  3 H s       :     0.954568  s :     0.954568
      pz      :     0.010274  p :     0.028363
      px      :     0.020220
      py      :    -0.002131
      dz2     :     0.000145  d :     0.001972
      dxz     :     0.000565
      dyz     :     0.000120
      dx2y2   :     0.000612
      dxy     :     0.000529
  4 H s       :     0.827843  s :     0.827843
      pz      :     0.014728  p :     0.030013
      px      :     0.015267
      py      :     0.000018
      dz2     :     0.000567  d :     0.001985
      dxz     :     0.000339
      dyz     :     0.000347
      dx2y2   :     0.000436
      dxy     :     0.000296
  5 H s       :     0.833186  s :     0.833186
      pz      :     0.014291  p :     0.030663
      px      :     0.014302
      py      :     0.002070
      dz2     :     0.000611  d :     0.001989
      dxz     :     0.000488
      dyz     :     0.000574
      dx2y2   :     0.000171
      dxy     :     0.000144
  6 C s       :     1.332057  s :     1.332057
      pz      :     0.368580  p :     1.397203
      px      :     0.399404
      py      :     0.629220
      dz2     :     0.053097  d :     0.026275
      dxz     :     0.023836
      dyz     :    -0.005672
      dx2y2   :    -0.065327
      dxy     :     0.020341
      f0      :     0.002233  f :     0.014270
      f+1     :     0.001888
      f-1     :     0.002070
      f+2     :     0.002432
      f-2     :     0.000965
      f+3     :     0.002415
      f-3     :     0.002268
  7 O s       :     3.839125  s :     3.839125
      pz      :     1.678491  p :     4.446985
      px      :     1.354431
      py      :     1.414063
      dz2     :     0.008345  d :     0.045788
      dxz     :     0.005022
      dyz     :     0.006597
      dx2y2   :     0.017336
      dxy     :     0.008488
      f0      :     0.000299  f :     0.002285
      f+1     :     0.000256
      f-1     :     0.000338
      f+2     :     0.000300
      f-2     :     0.000170
      f+3     :     0.000464
      f-3     :     0.000459
  8 C s       :     3.050985  s :     3.050985
      pz      :     0.537407  p :     1.902659
      px      :     0.750977
      py      :     0.614274
      dz2     :     0.015449  d :     0.092495
      dxz     :     0.005952
      dyz     :     0.051696
      dx2y2   :     0.060610
      dxy     :    -0.041212
      f0      :     0.002488  f :     0.028230
      f+1     :     0.001942
      f-1     :     0.002820
      f+2     :     0.002723
      f-2     :     0.004157
      f+3     :     0.007225
      f-3     :     0.006875
  9 O s       :     3.937449  s :     3.937449
      pz      :     1.625109  p :     4.400276
      px      :     1.224622
      py      :     1.550545
      dz2     :     0.001301  d :     0.033701
      dxz     :     0.019042
      dyz     :     0.004968
      dx2y2   :    -0.012790
      dxy     :     0.021179
      f0      :     0.000319  f :     0.002343
      f+1     :     0.000354
      f-1     :     0.000228
      f+2     :     0.000121
      f-2     :     0.000371
      f+3     :     0.000478
      f-3     :     0.000473
 10 C s       :     3.570599  s :     3.570599
      pz      :     0.769132  p :     2.142822
      px      :     0.674569
      py      :     0.699121
      dz2     :     0.005442  d :     0.191005
      dxz     :     0.091815
      dyz     :     0.013252
      dx2y2   :     0.069241
      dxy     :     0.011254
      f0      :     0.002681  f :     0.019181
      f+1     :     0.002346
      f-1     :     0.002071
      f+2     :     0.002534
      f-2     :     0.003006
      f+3     :     0.004122
      f-3     :     0.002421
 11 O s       :     3.969465  s :     3.969465
      pz      :     1.730758  p :     4.530593
      px      :     1.330040
      py      :     1.469795
      dz2     :     0.004229  d :     0.041101
      dxz     :     0.007434
      dyz     :     0.002128
      dx2y2   :     0.015678
      dxy     :     0.011633
      f0      :     0.000266  f :     0.002079
      f+1     :     0.000296
      f-1     :     0.000116
      f+2     :     0.000139
      f-2     :     0.000268
      f+3     :     0.000613
      f-3     :     0.000382
 12 C s       :     3.116494  s :     3.116494
      pz      :     1.059617  p :     3.281249
      px      :     1.087930
      py      :     1.133702
      dz2     :    -0.003616  d :     0.072734
      dxz     :     0.023376
      dyz     :     0.019126
      dx2y2   :     0.012738
      dxy     :     0.021109
      f0      :     0.000397  f :     0.003817
[...]
      f+3     :     0.002587
      f-3     :     0.004528
 13 H s       :     0.684232  s :     0.684232
      pz      :     0.081225  p :     0.277260
      px      :     0.076111
      py      :     0.119924
      dz2     :     0.004835  d :     0.029096
      dxz     :     0.002919
      dyz     :     0.007932
      dx2y2   :     0.005998
      dxy     :     0.007412
 14 H s       :     0.687843  s :     0.687843
      pz      :     0.090118  p :     0.269930
      px      :     0.085625
      py      :     0.094187
      dz2     :     0.006622  d :     0.029696
      dxz     :     0.005586
      dyz     :     0.006707
      dx2y2   :     0.005859
      dxy     :     0.004922
 15 H s       :     0.684088  s :     0.684088
      pz      :     0.077379  p :     0.274870
      px      :     0.113026
      py      :     0.084465
      dz2     :     0.003264  d :     0.029247
      dxz     :     0.007327
      dyz     :     0.002597
      dx2y2   :     0.008277
      dxy     :     0.007782
 16 C s       :     2.613005  s :     2.613005
      pz      :     0.921985  p :     2.669112
      px      :     0.825946
      py      :     0.921181
      dz2     :     0.074248  d :     0.379359
      dxz     :     0.058614
      dyz     :     0.053641
      dx2y2   :     0.104169
      dxy     :     0.088687
      f0      :     0.004746  f :     0.030768
      f+1     :     0.005689
      f-1     :     0.000547
      f+2     :     0.003813
      f-2     :     0.003436
      f+3     :     0.006287
      f-3     :     0.006249
 17 H s       :     0.682052  s :     0.682052
      pz      :     0.084346  p :     0.263183
      px      :     0.061193
      py      :     0.117644
      dz2     :     0.005491  d :     0.029441
      dxz     :     0.001786
      dyz     :     0.008381
      dx2y2   :     0.006785
      dxy     :     0.006998
 18 H s       :     0.678216  s :     0.678216
      pz      :     0.084826  p :     0.262794
      px      :     0.075806
      py      :     0.102162
      dz2     :     0.005509  d :     0.029290
      dxz     :     0.003908
      dyz     :     0.006147
      dx2y2   :     0.007275
      dxy     :     0.006451
 19 H s       :     0.673135  s :     0.673135
      pz      :     0.124215  p :     0.261077
      px      :     0.065615
      py      :     0.071248
      dz2     :     0.009627  d :     0.029100
      dxz     :     0.008234
      dyz     :     0.008952
      dx2y2   :     0.001326
      dxy     :     0.000962
 20 C s       :     2.610610  s :     2.610610
      pz      :     0.834076  p :     2.641872
      px      :     0.902230
      py      :     0.905566
      dz2     :     0.119704  d :     0.485390
      dxz     :     0.075247
      dyz     :     0.142939
      dx2y2   :     0.100445
      dxy     :     0.047056
      f0      :     0.006336  f :     0.031539
      f+1     :     0.006227
      f-1     :     0.005231
      f+2     :     0.003390
      f-2     :     0.004392
      f+3     :     0.005141
      f-3     :     0.000822
 21 H s       :     0.686998  s :     0.686998
      pz      :     0.066891  p :     0.263433
      px      :     0.079272
      py      :     0.117270
      dz2     :     0.003544  d :     0.029107
      dxz     :     0.001575
      dyz     :     0.007802
      dx2y2   :     0.008440
      dxy     :     0.007746
 22 H s       :     0.673064  s :     0.673064
      pz      :     0.081454  p :     0.308192
      px      :     0.143884
      py      :     0.082854
      dz2     :     0.002776  d :     0.029817
      dxz     :     0.009064
      dyz     :     0.000145
      dx2y2   :     0.008052
      dxy     :     0.009780
 23 H s       :     0.688981  s :     0.688981
      pz      :     0.084349  p :     0.263746
      px      :     0.077619
      py      :     0.101778
      dz2     :     0.007133  d :     0.029325
      dxz     :     0.004294
      dyz     :     0.007257
      dx2y2   :     0.005644
      dxy     :     0.004996
 24 Aus       :     2.408039  s :     2.408039
      pz      :     2.026117  p :     6.424172
      px      :     2.303856
      py      :     2.094199
      dz2     :     1.942992  d :     9.574783
      dxz     :     1.910490
      dyz     :     1.964019
      dx2y2   :     1.885952
      dxy     :     1.871330
      f0      :     0.002049  f :     0.043373
      f+1     :     0.009284
      f-1     :     0.002623
      f+2     :     0.001467
      f-2     :     0.002310
      f+3     :     0.004895
      f-3     :     0.020745
      g0      :     0.000054  g :     0.000623
      g+1     :     0.000048
      g-1     :     0.000013
      g+2     :     0.000049
      g-2     :     0.000084
      g+3     :     0.000011
      g-3     :     0.000048
      g+4     :     0.000097
      g-4     :     0.000218
 25 P s       :     4.804071  s :     4.804071
      pz      :     2.833974  p :     8.758267
      px      :     3.038779
      py      :     2.885514
      dz2     :     0.094056  d :     0.531113
      dxz     :     0.059679
      dyz     :     0.139981
      dx2y2   :     0.085845
      dxy     :     0.151552
      f0      :     0.004747  f :     0.058994
      f+1     :     0.008364
      f-1     :     0.008457
      f+2     :     0.009214
      f-2     :     0.007208
      f+3     :     0.008956
      f-3     :     0.012048
 26 H s       :     0.860469  s :     0.860469
      pz      :     0.097026  p :     0.294078
      px      :     0.083090
      py      :     0.113962
      dz2     :     0.002238  d :     0.011907
      dxz     :     0.001481
      dyz     :     0.004083
      dx2y2   :     0.001820
      dxy     :     0.002285
 27 H s       :     0.862550  s :     0.862550
      pz      :     0.058847  p :     0.296854
      px      :     0.142994
      py      :     0.095013
      dz2     :     0.001555  d :     0.011889
      dxz     :     0.001527
      dyz     :     0.001136
      dx2y2   :     0.003606
      dxy     :     0.004066
 28 H s       :     0.862617  s :     0.862617
      pz      :     0.126715  p :     0.294767
      px      :     0.085026
      py      :     0.083027
      dz2     :     0.003600  d :     0.011895
      dxz     :     0.002801
      dyz     :     0.003841
      dx2y2   :     0.000581
      dxy     :     0.001072


                      *****************************
                      * MAYER POPULATION ANALYSIS *
                      *****************************

  NA   - Mulliken gross atomic population
  ZA   - Total nuclear charge
  QA   - Mulliken gross atomic charge
  VA   - Mayer's total valence
  BVA  - Mayer's bonded valence
  FA   - Mayer's free valence

  ATOM       NA         ZA         QA         VA         BVA        FA
  0 C      5.6971     6.0000     0.3029     2.8149     2.8149     0.0000
  1 C      6.8579     6.0000    -0.8579     1.4492     1.4492    -0.0000
  2 C      6.6174     6.0000    -0.6174     4.0109     4.0109     0.0000
  3 H      0.9849     1.0000     0.0151     1.0446     1.0446     0.0000
  4 H      0.8598     1.0000     0.1402     0.9848     0.9848    -0.0000
  5 H      0.8658     1.0000     0.1342     0.9959     0.9959     0.0000
  6 C      2.7698     6.0000     3.2302    -1.4397    -1.4397    -0.0000
  7 O      8.3342     8.0000    -0.3342     1.7521     1.7521    -0.0000
  8 C      5.0744     6.0000     0.9256     3.5193     3.5193     0.0000
  9 O      8.3738     8.0000    -0.3738     1.9732     1.9732    -0.0000
 10 C      5.9236     6.0000     0.0764     2.9152     2.9152     0.0000
 11 O      8.5432     8.0000    -0.5432     1.7304     1.7304    -0.0000
 12 C      6.4743     6.0000    -0.4743     4.1963     4.1963    -0.0000
 13 H      0.9315     1.0000     0.0685     1.0107     1.0107    -0.0000
 14 H      0.8960     1.0000     0.1040     1.0353     1.0353    -0.0000
 15 H      0.8962     1.0000     0.1038     1.0176     1.0176    -0.0000
 16 C      6.7457     6.0000    -0.7457     3.7469     3.7469     0.0000
 17 H      0.8653     1.0000     0.1347     1.0224     1.0224     0.0000
 18 H      0.8727     1.0000     0.1273     1.0380     1.0380     0.0000
 19 H      0.8568     1.0000     0.1432     1.0421     1.0421     0.0000
 20 C      6.7191     6.0000    -0.7191     3.7162     3.7162    -0.0000
 21 H      0.9402     1.0000     0.0598     1.0553     1.0553    -0.0000
 22 H      1.0016     1.0000    -0.0016     1.1436     1.1436    -0.0000
 23 H      0.8871     1.0000     0.1129     1.0034     1.0034    -0.0000
 24 Au    19.2548    19.0000    -0.2548     1.8641     1.8641     0.0000
 25 P     14.9501    15.0000     0.0499     3.7012     3.7012    -0.0000
 26 H      0.9291     1.0000     0.0709     0.9463     0.9463    -0.0000
 27 H      0.9425     1.0000     0.0575     0.9446     0.9446    -0.0000
 28 H      0.9352     1.0000     0.0648     0.9450     0.9450     0.0000

  Mayer bond orders larger than 0.100000
B(  0-C ,  1-C ) :   0.7879 B(  0-C ,  2-C ) :   0.8736 B(  0-C ,  9-O ) :   0.1487 
B(  0-C , 10-C ) :   0.1445 B(  0-C , 24-Au) :   1.1510 B(  1-C ,  6-C ) :  -1.1596 
B(  1-C ,  9-O ) :   0.7216 B(  1-C , 10-C ) :   0.9120 B(  1-C , 12-C ) :   0.1734 
B(  1-C , 20-C ) :   0.3215 B(  1-C , 24-Au) :  -0.2907 B(  2-C ,  3-H ) :   1.0321 
B(  2-C ,  4-H ) :   0.9954 B(  2-C ,  5-H ) :   0.9998 B(  2-C , 24-Au) :   0.1460 
B(  6-C ,  7-O ) :   0.6133 B(  6-C ,  8-C ) :  -0.1876 B(  6-C ,  9-O ) :  -0.1090 
B(  6-C , 10-C ) :  -0.5914 B(  6-C , 12-C ) :  -0.1904 B(  6-C , 16-C ) :  -0.1008 
B(  6-C , 20-C ) :   0.5023 B(  6-C , 23-H ) :  -0.1173 B(  7-O ,  8-C ) :   1.2708 
B(  8-C ,  9-O ) :   1.2230 B(  8-C , 16-C ) :   1.1202 B(  9-O , 16-C ) :  -0.1274 
B( 10-C , 11-O ) :   1.6204 B( 10-C , 12-C ) :   1.1556 B( 12-C , 13-H ) :   0.9676 
B( 12-C , 14-H ) :   1.0391 B( 12-C , 15-H ) :   0.9814 B( 16-C , 17-H ) :   1.0087 
B( 16-C , 18-H ) :   1.0003 B( 16-C , 19-H ) :   0.9468 B( 20-C , 21-H ) :   1.0035 
B( 20-C , 22-H ) :   0.9868 B( 20-C , 23-H ) :   1.0347 B( 24-Au, 25-P ) :   0.8583 
B( 25-P , 26-H ) :   0.9589 B( 25-P , 27-H ) :   0.9648 B( 25-P , 28-H ) :   0.9586 


-------
TIMINGS
-------

Total SCF time: 0 days 0 hours 1 min 11 sec 

Total time                  ....      71.469 sec
Sum of individual times     ....      70.562 sec  ( 98.7%)

Fock matrix formation       ....      62.685 sec  ( 87.7%)
  XC integration            ....       5.987 sec  (  9.6% of F)
    Basis function eval.    ....       1.086 sec  ( 18.1% of XC)
    Density eval.           ....       2.061 sec  ( 34.4% of XC)
    XC-Functional eval.     ....       0.067 sec  (  1.1% of XC)
    XC-Potential eval.      ....       2.088 sec  ( 34.9% of XC)
Diagonalization             ....       2.986 sec  (  4.2%)
Density matrix formation    ....       0.104 sec  (  0.1%)
Population analysis         ....       0.148 sec  (  0.2%)
Initial guess               ....       1.938 sec  (  2.7%)
Orbital Transformation      ....       0.000 sec  (  0.0%)
Orbital Orthonormalization  ....       0.000 sec  (  0.0%)
DIIS solution               ....       1.619 sec  (  2.3%)
Grid generation             ....       1.083 sec  (  1.5%)


           ************************************************************
           *        Program running with 24 parallel MPI-processes    *
           *              working on a common directory               *
           ************************************************************

------------------------------------------------------------------------------
                                ORCA  MP2 
------------------------------------------------------------------------------

Freezing NCore=34 chemical core electrons

-------------
RI-MP2 ENERGY
-------------
Dimension of the basis                    ...  815
Memory devoted to MP2                     ... 5000 MB   
Data format for buffers                   ... DOUBLE
Compression type for matrix containers    ... UNCOMPRESSED
Scaling for aa/bb pairs                   ...   4.000e-01
Scaling for ab pairs                      ...   4.700e-01
Overall scaling of the MP2 energy         ...   1.000e+00
Calculating two index integrals           ... done (    0.030 sec)
Cholesky decomposition of V**-1           ... done (    0.418 sec)

-----------------
RI-TRANSFORMATION (AUX index driven)
-----------------

Dimension of the orbital-basis         ... 815
Dimension of the aux-basis             ... 2021
Transformation of internal/external MOs...   17-  62 to   63- 814
Number Format for Storage              ... Double (8 Byte)
Integral mode                          ... Direct

First Phase: integral generation and transformation of MO indices
  Aux angular momentum 0               ... done (    0.158 sec)
  Aux angular momentum 1               ... done (    0.295 sec)
  Aux angular momentum 2               ... done (    0.442 sec)
  Aux angular momentum 3               ... done (    0.404 sec)
  Aux angular momentum 4               ... done (    0.116 sec)
  Aux angular momentum 5               ... done (    0.147 sec)
  Aux angular momentum 6               ... done (    0.190 sec)
Closing buffer VIA ( 0.52 GB; CompressionRatio= 1.00)
  Phase 1 completed in     1.866 sec
Second Phase: sorting and transformation of aux index

IA-Transformation
Memory available                       ... 4916 MB 
Max. # MO pairs treated in a batch     ... 2    
# of internal orbitals                 ... 46
# batches for internal orbitals        ... 1
Closing buffer IAV ( 0.02 GB; CompressionRatio= 1.00)
(ia|v) transformation done in     0.406 sec

  Phase 2 completed in     0.907 sec
RI-Integral transformation completed in     2.786 sec
Opening buffers                              ... done

Starting loop over batches of integrals:

Operator 0  - window                       ... ( 17- 62)x( 63-814)
Operator 0  - Memory available             ...  5000 MB
Operator 0  - Memory needed per MO         ...  11.6 MB
Operator 0  - Number of orbitals per batch ... 2
Operator 0  - Number of batches            ... 1

OPERATOR  0   PASS   0:  MOs    17 ...   18 +   19 ...   20 +   21 ...   22 +   23 ...   24
                            +   25 ...   26 +   27 ...   28 +   29 ...   30 +   31 ...   32
                            +   33 ...   34 +   35 ...   36 +   37 ...   38 +   39 ...   40
                            +   41 ...   42 +   43 ...   44 +   45 ...   46 +   47 ...   48
                            +   49 ...   50 +   51 ...   52 +   53 ...   54 +   55 ...   56
                            +   57 ...   58 +   59 ...   60 +   61 ...   62
  Reading integrals       ... ok
Time spent in pair loops =     0.191 sec
Deleting buffer (Ka|jb)[aa] ...done

-----------------------------------------------
 RI-MP2 CORRELATION ENERGY:     -1.507099784 Eh
-----------------------------------------------


-------
TIMINGS
-------

Total time                :    7.353 sec
Integral trafo            :    2.799 sec ( 38.1%)
I/O of integrals          :    0.024 sec (  0.3%)
K(i,j) Operators          :    0.121 sec (  1.7%)
T(i,j) pair energies      :    0.022 sec (  0.3%)
V-calculation             :    0.030 sec (  0.4%)
V**(-1/2)                 :    0.418 sec (  5.7%)
Gamma(ia|P)               :    0.000 sec (  0.0%)
Gamma-Trafo               :    0.000 sec (  0.0%)
D(virtual)                :    0.000 sec (  0.0%)
D(internal)               :    0.000 sec (  0.0%)
W(virtual)                :    0.000 sec (  0.0%)
W(internal)               :    0.000 sec (  0.0%)
L(virtual)                :    0.000 sec (  0.0%)
L(internal)               :    0.000 sec (  0.0%)
G(D)                      :    0.000 sec (  0.0%)
G(Z)                      :    0.000 sec (  0.0%)
Z-Vector Solution         :    0.000 sec (  0.0%)
Z-Vector Solution         :    0.000 sec (  0.0%)
3-Index Derivative 
+ Separable RIJ part      :    0.000 sec (  0.0%)
2-Index Derivative 
+ Separable RIJ part      :    0.000 sec (  0.0%)
Separable Gradient (X)    :    0.000 sec (  0.0%)


---------------------------------------
MP2 TOTAL ENERGY:    -1053.675426895 Eh
---------------------------------------


-------------------------------------------------------------------------------
                          DFT DISPERSION CORRECTION                            
                                                                               
                              DFTD3 V3.1  Rev 1                                
                          USING Becke-Johnson damping                          
-------------------------------------------------------------------------------
The DSD-BLYP/2013 functional is recognized
Active option DFTDOPT                   ...         4   

molecular C6(AA) [au] = 11464.278499 


            DFT-D V3
 parameters
 s6 scaling factor         :     0.5700 
 a1 scaling factor         :     0.0000 
 s8 scaling factor         :     0.0000 
 a2 scaling factor         :     5.4000 
 ad hoc parameters k1-k3   :    16.0000     1.3333    -4.0000 

 Edisp/kcal,au: -21.681088525169  -0.034551010158 
 E6   /kcal   : -21.681088525 
 E8   /kcal   :  -0.000000000 
 % E8         :   0.000000000 

-------------------------   ----------------
Dispersion correction           -0.034551010
-------------------------   ----------------


-------------------------   --------------------
FINAL SINGLE POINT ENERGY     -1053.709977904883
-------------------------   --------------------


                            ***************************************
                            *     ORCA property calculations      *
                            ***************************************


  WARNING: The energy has been calculated at the MP2 level but the densities
           used in the property calculations are still SCF densities
           MP2 response densities have not been calculated 
           use %mp2 Density relaxed end
           or  %mp2 Density unrelaxed end

                                    ---------------------
                                    Active property flags
                                    ---------------------
   (+) Dipole Moment


------------------------------------------------------------------------------
                       ORCA ELECTRIC PROPERTIES CALCULATION
------------------------------------------------------------------------------

Dipole Moment Calculation                       ... on
Quadrupole Moment Calculation                   ... off
Polarizability Calculation                      ... off
GBWName                                         ... TMB29_C2.gbw
Electron density file                           ... TMB29_C2.scfp
The origin for moment calculation is the CENTER OF MASS  = (-0.365868, -0.059798  0.000023)

-------------
DIPOLE MOMENT
-------------
                                X             Y             Z
Electronic contribution:   -213.28309     -43.42943      -1.30035
Nuclear contribution   :    216.19870      43.43467       1.47956
                        -----------------------------------------
Total Dipole Moment    :      2.91561       0.00524       0.17921
                        -----------------------------------------
Magnitude (a.u.)       :      2.92112
Magnitude (Debye)      :      7.42489



--------------------
Rotational spectrum 
--------------------
 
Rotational constants in cm-1:     0.028648     0.008219     0.007101 
Rotational constants in MHz :   858.848987   246.390678   212.872024 

 Dipole components along the rotational axes: 
x,y,z [a.u.] :    -2.915901    -0.038901     0.170096 
x,y,z [Debye]:    -7.411632    -0.098880     0.432350 

 

Timings for individual modules:

Sum of individual times         ...       83.533 sec (=   1.392 min)
GTO integral calculation        ...        3.425 sec (=   0.057 min)   4.1 %
SCF iterations                  ...       72.068 sec (=   1.201 min)  86.3 %
MP2 module                      ...        8.040 sec (=   0.134 min)   9.6 %
                             ****ORCA TERMINATED NORMALLY****
TOTAL RUN TIME: 0 days 0 hours 1 minutes 24 seconds 138 msec
