
                                 *****************
                                 * O   R   C   A *
                                 *****************

           --- An Ab Initio, DFT and Semiempirical electronic structure package ---

                  #######################################################
                  #                        -***-                        #
                  #          Department of theory and spectroscopy      #
                  #               Directorship: Frank Neese             #
                  #        Max Planck Institute fuer Kohlenforschung    #
                  #                Kaiser Wilhelm Platz 1               #
                  #                 D-45470 Muelheim/Ruhr               #
                  #                      Germany                        #
                  #                                                     #
                  #                  All rights reserved                #
                  #                        -***-                        #
                  #######################################################


                         Program Version 4.2.0 -  RELEASE  -


 With contributions from (in alphabetic order):
   Daniel Aravena         : Magnetic Suceptibility
   Michael Atanasov       : Ab Initio Ligand Field Theory (pilot matlab implementation)
   Alexander A. Auer      : GIAO ZORA, VPT2
   Ute Becker             : Parallelization
   Giovanni Bistoni       : ED, misc. LED, open-shell LED, HFLED
   Martin Brehm           : Molecular dynamics
   Dmytro Bykov           : SCF Hessian
   Vijay G. Chilkuri      : MRCI spin determinant printing, contributions to CSF-ICE
   Dipayan Datta          : RHF DLPNO-CCSD density
   Achintya Kumar Dutta   : EOM-CC, STEOM-CC
   Dmitry Ganyushin       : Spin-Orbit,Spin-Spin,Magnetic field MRCI
   Miquel Garcia          : C-PCM Hessian, Gaussian charge scheme
   Yang Guo               : DLPNO-NEVPT2, CIM, IAO-localization
   Andreas Hansen         : Spin unrestricted coupled pair/coupled cluster methods
   Benjamin Helmich-Paris : CASSCF linear response (MC-RPA)
   Lee Huntington         : MR-EOM, pCC
   Robert Izsak           : Overlap fitted RIJCOSX, COSX-SCS-MP3, EOM
   Christian Kollmar      : KDIIS, OOCD, Brueckner-CCSD(T), CCSD density
   Simone Kossmann        : Meta GGA functionals, TD-DFT gradient, OOMP2, MP2 Hessian
   Martin Krupicka        : AUTO-CI
   Lucas Lang             : DCDCAS
   Dagmar Lenk            : GEPOL surface, SMD
   Dimitrios Liakos       : Extrapolation schemes; Compound Job, initial MDCI parallelization
   Dimitrios Manganas     : Further ROCIS development; embedding schemes
   Dimitrios Pantazis     : SARC Basis sets
   Taras Petrenko         : DFT Hessian,TD-DFT gradient, ASA, ECA, R-Raman, ABS, FL, XAS/XES, NRVS
   Peter Pinski           : DLPNO-MP2, DLPNO-MP2 Gradient
   Christoph Reimann      : Effective Core Potentials
   Marius Retegan         : Local ZFS, SOC
   Christoph Riplinger    : Optimizer, TS searches, QM/MM, DLPNO-CCSD(T), (RO)-DLPNO pert. Triples
   Tobias Risthaus        : Range-separated hybrids, TD-DFT gradient, RPA, STAB
   Michael Roemelt        : Original ROCIS implementation
   Masaaki Saitow         : Open-shell DLPNO-CCSD energy and density
   Barbara Sandhoefer     : DKH picture change effects
   Avijit Sen             : IP-ROCIS
   Kantharuban Sivalingam : CASSCF convergence, NEVPT2, FIC-MRCI
   Bernardo de Souza      : ESD, SOC TD-DFT
   Georgi Stoychev        : AutoAux, RI-MP2 NMR
   Willem Van den Heuvel  : Paramagnetic NMR
   Boris Wezisla          : Elementary symmetry handling
   Frank Wennmohs         : Technical directorship


 We gratefully acknowledge several colleagues who have allowed us to
 interface, adapt or use parts of their codes:
   Stefan Grimme, W. Hujo, H. Kruse,             : VdW corrections, initial TS optimization,
                  C. Bannwarth                     DFT functionals, gCP, sTDA/sTD-DF
   Ed Valeev, F. Pavosevic, A. Kumar             : LibInt (2-el integral package), F12 methods
   Garnet Chan, S. Sharma, J. Yang, R. Olivares  : DMRG
   Ulf Ekstrom                                   : XCFun DFT Library
   Mihaly Kallay                                 : mrcc  (arbitrary order and MRCC methods)
   Andreas Klamt, Michael Diedenhofen            : otool_cosmo (COSMO solvation model)
   Jiri Pittner, Ondrej Demel                    : Mk-CCSD
   Frank Weinhold                                : gennbo (NPA and NBO analysis)
   Christopher J. Cramer and Donald G. Truhlar   : smd solvation model
   Lars Goerigk                                  : TD-DFT with DH, B97 family of functionals
   V. Asgeirsson, H. Jonsson                     : NEB implementation
   FAccTs GmbH                                   : IRC, NEB, NEB-TS, Multilevel, MM, QM/MM, CI optimization
   S Lehtola, MJT Oliveira, MAL Marques          : LibXC Library


 Your calculation uses the libint2 library for the computation of 2-el integrals
 For citations please refer to: http://libint.valeyev.net

 Your ORCA version has been built with support for libXC version: 4.2.3
 For citations please refer to: https://tddft.org/programs/libxc/

 This ORCA versions uses:
   CBLAS   interface :  Fast vector & matrix operations
   LAPACKE interface :  Fast linear algebra routines
   SCALAPACK package :  Parallel linear algebra routines


----- Orbital basis set information -----
Your calculation utilizes the basis: def2-SVP
   F. Weigend and R. Ahlrichs, Phys. Chem. Chem. Phys. 7, 3297 (2005).

----- AuxJ basis set information -----
Your calculation utilizes the auxiliary basis: def2/J
   F. Weigend, Phys. Chem. Chem. Phys. 8, 1057 (2006).

================================================================================
                                        WARNINGS
                       Please study these warnings very carefully!
================================================================================


INFO   : the flag for use of LIBINT has been found!

================================================================================
                                       INPUT FILE
================================================================================
NAME = TMB26_C1_atom79.inp
|  1> # input to generate an atomic fitting density for Au
|  2> # this file is use internally by ORCA
|  3> #
|  4> # atomic ground state (S=2): 1s2 2s2 2p6 3s2 3p6 4s2 3d10 4p6 5s2 4d10 5p6 6s1 4f14 5d10 
|  5> #
|  6> ! RHF AllowRHF def2-SVP def2/J  NoMulliken NoLoewdin NoMayer NoPrintMOs 
|  7> 
|  8> %output print[p_atomdensfit] 2 end
|  9> 
| 10> %scf
| 11>   guess hcore
| 12>   maxiter 1000
| 13>   maxdisk 500000
| 14>   SCFMode Conventional
| 15>   lshift 1.000000
| 16>   hftyp rohf
| 17>   rohf_case sahf
| 18>   rohf_numop   2
| 19>   rohf_norb[1] 1
| 20>   rohf_nel[1]  1
| 21> end
| 22> 
| 23> %basis
| 24>   NewECP 79
| 25>     N_core 60
| 26>     lmax f
| 27>     s 4
| 28>       1      13.2051000000    426.8466792000  2
| 29>       2       6.6025500000     37.0070829000  2
| 30>       3       4.7898200000    -30.4900889000  2
| 31>       4       2.3949100000     -5.1710738000  2
| 32>     p 4
| 33>       1      10.4520200000    261.1995804000  2
| 34>       2       5.2260100000     26.9624960000  2
| 35>       3       4.7898200000    -30.4900889000  2
| 36>       4       2.3949100000     -5.1710738000  2
| 37>     d 4
| 38>       1       7.8511000000    124.7906656000  2
| 39>       2       3.9255500000     16.3007257000  2
| 40>       3       4.7898200000    -30.4900889000  2
| 41>       4       2.3949100000     -5.1710738000  2
| 42>     f 2
| 43>       1       4.7898200000     30.4900889000  2
| 44>       2       2.3949100000      5.1710738000  2
| 45>   end
| 46>   NewGTO 79
| 47>     s 3 
| 48>      1      30.0000000000      0.7878815859
| 49>      2      27.0000000000     -1.2632352720
| 50>      3      14.7468243310      1.4544194336
| 51>     s 1 
| 52>      1       5.6017248938      1.0000000000
| 53>     s 1 
| 54>      1       1.3874162443      1.0000000000
| 55>     s 1 
| 56>      1       0.6292303196      1.0000000000
| 57>     s 1 
| 58>      1       0.1402751761      1.0000000000
| 59>     s 1 
| 60>      1       0.0493794138      1.0000000000
| 61>     p 4 
| 62>      1      15.5000000000      0.3283807140
| 63>      2      14.0000000000     -0.5168081730
| 64>      3       6.4227368205      0.6886210803
| 65>      4       1.6595601681     -1.2538261785
| 66>     p 1 
| 67>      1       0.7940291399      1.0000000000
| 68>     p 1 
| 69>      1       0.3512515540      1.0000000000
| 70>     p 1 
| 71>      1       0.0450000000      1.0000000000
| 72>     d 4 
| 73>      1       9.5524098656      0.0556208267
| 74>      2       7.2698886937     -0.1298067767
| 75>      3       1.7746496789      0.4398380516
| 76>      4       0.7996054106      0.6483375306
| 77>     d 1 
| 78>      1       0.3325227937      1.0000000000
| 79>     d 1 
| 80>      1       0.1244513311      1.0000000000
| 81>     p 1 
| 82>      1       0.1180173749      1.0000000000
| 83>   end
| 84>   NewAuxGTO 79
| 85>     S 1
| 86>      1 1310.72 1.0
| 87>     S 1
| 88>      1  655.36 1.0
| 89>     S 1
| 90>      1  327.68 1.0
| 91>     S 1
| 92>      1  163.84 1.0
| 93>     S 1
| 94>      1   81.82 1.0
| 95>     S 1
| 96>      1   40.96 1.0
| 97>     S 1
| 98>      1   20.48 1.0
| 99>     S 1
|100>      1   10.24 1.0
|101>     S 1
|102>      1    5.12 1.0
|103>     S 1
|104>      1    2.56 1.0
|105>     S 1
|106>      1    1.28 1.0
|107>     S 1
|108>      1    0.64 1.0
|109>     S 1
|110>      1    0.32 1.0
|111>     S 1
|112>      1    0.16 1.0
|113>     S 1
|114>      1    0.08 1.0
|115>     S 1
|116>      1    0.04 1.0
|117>     S 1
|118>      1    0.02 1.0
|119>     S 1
|120>      1    0.01 1.0
|121>   end
|122> end
|123> 
|124> * xyz 0 2
|125> 79  0.0 0.0 0.0
|126> *
|127> 
|128> 
|129>                          ****END OF INPUT****
================================================================================

                       ****************************
                       * Single Point Calculation *
                       ****************************

---------------------------------
CARTESIAN COORDINATES (ANGSTROEM)
---------------------------------
  Au     0.000000    0.000000    0.000000

----------------------------
CARTESIAN COORDINATES (A.U.)
----------------------------
  NO LB      ZA    FRAG     MASS         X           Y           Z
   0 Au   19.0000*   0   196.966    0.000000    0.000000    0.000000
* core charge reduced due to ECP

--------------------------------
INTERNAL COORDINATES (ANGSTROEM)
--------------------------------
 Au     0   0   0     0.000000000000     0.00000000     0.00000000

---------------------------
INTERNAL COORDINATES (A.U.)
---------------------------
 Au     0   0   0     0.000000000000     0.00000000     0.00000000

---------------------
BASIS SET INFORMATION
---------------------
There are 1 groups of distinct atoms

 Group   1 Type Au  : 8s8p6d contracted to 6s5p3d pattern {311111/41111/411}

Atom   0Au   basis set group =>   1
---------------------------------
AUXILIARY/J BASIS SET INFORMATION
---------------------------------
There are 1 groups of distinct atoms

 Group   1 Type Au  : 18s contracted to 18s pattern {111111111111111111}

Atom   0Au   basis set group =>   1
-------------------------
ECP PARAMETER INFORMATION
-------------------------

 Group 1, Type Au ECP (replacing 60 core electrons, lmax=3)

Atom   0Au   ECP group =>   1

------------------------------------------------------------------------------
                           ORCA GTO INTEGRAL CALCULATION
------------------------------------------------------------------------------

                         BASIS SET STATISTICS AND STARTUP INFO

 # of primitive gaussian shells          ...   22
 # of primitive gaussian functions       ...   62
 # of contracted shells                  ...   14
 # of contracted basis functions         ...   36
 Highest angular momentum                ...    2
 Maximum contraction depth               ...    4
 Integral package used                   ... LIBINT
 Integral threshhold            Thresh   ...  1.000e-10
 Primitive cut-off              TCut     ...  1.000e-11
 Storage cut-off                TCutStore... -1.000e+00
 Buffer length                           ... 1048576 integrals/buffer
 Generate file with integrals 4 distinct ...false


------------------------------ INTEGRAL EVALUATION ----------------------------


 * One electron integrals 

   ECP integrals                         ... done
 Pre-screening matrix                    ... done
 Shell pair data                         ... done (   0.000 sec)
 Statistics run                          ... done
 Maximum amount of storage needed        ...     2 MB
 Maximum amount of storage dedicated     ... 500000 MB
 Beginning two electron integral evaluation:
 Starting repulsion integrals
  <ss|ss>  ...          231 b.         0 skpd (  0.0%)     0.000 s. (  0.000 ms/b)
  <ss|sp>  ...          630 b.         0 skpd (  0.0%)     0.000 s. (  0.000 ms/b)
  <ss|sd>  ...          378 b.         0 skpd (  0.0%)     0.000 s. (  0.000 ms/b)
  <ss|pp>  ...          315 b.         0 skpd (  0.0%)     0.000 s. (  0.000 ms/b)
  <ss|pd>  ...          315 b.         0 skpd (  0.0%)     0.000 s. (  0.001 ms/b)
  <ss|dd>  ...          126 b.         0 skpd (  0.0%)     0.000 s. (  0.002 ms/b)
  <sp|sp>  ...          465 b.         0 skpd (  0.0%)     0.000 s. (  0.000 ms/b)
  <sp|sd>  ...          540 b.         0 skpd (  0.0%)     0.000 s. (  0.001 ms/b)
  <sp|pp>  ...          450 b.         0 skpd (  0.0%)     0.000 s. (  0.001 ms/b)
  <sp|pd>  ...          450 b.         0 skpd (  0.0%)     0.001 s. (  0.002 ms/b)
  <sp|dd>  ...          180 b.         0 skpd (  0.0%)     0.001 s. (  0.005 ms/b)
  <sd|sd>  ...          171 b.         0 skpd (  0.0%)     0.000 s. (  0.002 ms/b)
  <sd|pp>  ...          270 b.         0 skpd (  0.0%)     0.001 s. (  0.002 ms/b)
  <sd|pd>  ...          270 b.         0 skpd (  0.0%)     0.001 s. (  0.005 ms/b)
  <sd|dd>  ...          108 b.         0 skpd (  0.0%)     0.001 s. (  0.012 ms/b)
  <pp|pp>  ...          120 b.         0 skpd (  0.0%)     0.000 s. (  0.003 ms/b)
  <pp|pd>  ...          225 b.         0 skpd (  0.0%)     0.001 s. (  0.006 ms/b)
  <pp|dd>  ...           90 b.         0 skpd (  0.0%)     0.001 s. (  0.015 ms/b)
  <pd|pd>  ...          120 b.         0 skpd (  0.0%)     0.002 s. (  0.016 ms/b)
  <pd|dd>  ...           90 b.         0 skpd (  0.0%)     0.003 s. (  0.036 ms/b)
  <dd|dd>  ...           21 b.         0 skpd (  0.0%)     0.002 s. (  0.117 ms/b)


                                      INTEGRAL STATISTICS

Integral type statistics:
 Number of integrals retained            ...     222111 
 One   Center Integrals retained         ...     222111 (100.0%)
 Two   Center Integrals retained         ...          0 (  0.0%)
 Three Center Integrals retained         ...          0 (  0.0%)
 Four  Center Integrals retained         ...          0 (  0.0%)

Storage statistics:
 Number of char integrals                ...          0 (  0.0%)
 Number of short int integrals           ...          0 (  0.0%)
 Number of double/float integrals        ...     222111 (100.0%)
 Amount of memory used                   ...          2 MB
 Amount of memory estimated              ...          2 MB ( 95.1%)

Prescreening statistics:
 Total number of shell quadruples        ...       5565 
 Number of skipped shell quadruples      ...          0 (  0.0%)
 # of negligible batches done            ...          0 (  0.0%)

Timings:
 Total evaluation time               ...     0.172 sec (   0.003 min)
 One electron matrix time            ...     0.011 sec (   0.000 min) =  6.2%
 Schwartz matrix evaluation time     ...     0.070 sec (   0.001 min) = 40.4%
 Statistics run                      ...     0.002 sec (   0.000 min) =  1.0%
 Repulsion integral time             ...     0.018 sec (   0.000 min) = 10.7%

-------------------------------------------------------------------------------
                                 ORCA SCF
-------------------------------------------------------------------------------

------------
SCF SETTINGS
------------
Hamiltonian:
 Ab initio Hamiltonian  Method          .... Hartree-Fock(GTOs)


General Settings:
 Integral files         IntName         .... TMB26_C1_atom79
 Hartree-Fock type      HFTyp           .... ROHF
 Total Charge           Charge          ....    0
 Multiplicity           Mult            ....    2
 Number of Electrons    NEL             ....   19
 Basis Dimension        Dim             ....   36
 Nuclear Repulsion      ENuc            ....      0.0000000000 Eh

Convergence Acceleration:
 DIIS                   CNVDIIS         .... on
   Start iteration      DIISMaxIt       ....    12
   Startup error        DIISStart       ....  0.200000
   # of expansion vecs  DIISMaxEq       ....     5
   Bias factor          DIISBfac        ....   1.050
   Max. coefficient     DIISMaxC        ....  10.000
 Newton-Raphson         CNVNR           .... off
 SOSCF                  CNVSOSCF        .... off
 Level Shifting         CNVShift        .... on
   Level shift para.    LevelShift      ....    1.0000
   Turn off err/grad.   ShiftErr        ....    0.0010
 Zerner damping         CNVZerner       .... off
 Static damping         CNVDamp         .... on
   Fraction old density DampFac         ....    0.7000
   Max. Damping (<1)    DampMax         ....    0.9800
   Min. Damping (>=0)   DampMin         ....    0.0000
   Turn off err/grad.   DampErr         ....    0.1000
 Fernandez-Rico         CNVRico         .... off

SCF Procedure:
 Maximum # iterations   MaxIter         ....  1000
 SCF integral mode      SCFMode         .... Conventional
 Integral Threshold     Thresh          ....  1.000e-10 Eh
 Primitive CutOff       TCut            ....  1.000e-11 Eh
 Integral Buffer length BufferLength    .... 1048576
 Integral index format  IndFormat       ....     0
 Integral value format  ValFormat       ....     0
 Integral Storage       Thresh          ....  1.000e-10 Eh

Convergence Tolerance:
 Convergence Check Mode ConvCheckMode   .... Total+1el-Energy
 Convergence forced     ConvForced      .... 0
 Energy Change          TolE            ....  1.000e-06 Eh
 1-El. energy change                    ....  1.000e-03 Eh
 DIIS Error             TolErr          ....  1.000e-06


Diagonalization of the overlap matrix:
Smallest eigenvalue                        ... 1.668e-02
Time for diagonalization                   ...    0.000 sec
Threshold for overlap eigenvalues          ... 1.000e-08
Number of eigenvalues below threshold      ... 0
Time for construction of square roots      ...    0.000 sec
Total time needed                          ...    0.001 sec

--------------------
INITIAL GUESS: HCORE
--------------------
AVERAGE-CONFIGURATION (SAHF) CASE FOUND

-------------------
FINAL ROHF SETTINGS
-------------------
Number of operators             ... 2
  operator   0:   9 orbitals  18 electrons n(mue)= 2.000
  operator   1:   1 orbitals   1 electrons n(mue)= 1.000
Vector coupling coefficients a and b (Zerner convention):
   1.000    1.000           1.000    1.000 
   1.000    0.000           1.000    0.000 

                      -----------------
                      INTIAL GUESS DONE 
                      -----------------

 InCore treatment chosen:
   Memory dedicated               ...    1024 MB
   Memory needed                  ...      2 MB
   Number of tiny    integrals    ...       0
   Number of small   integrals    ...       0
   Number of regular integrals    ...  222111

--------------
SCF ITERATIONS
--------------
ITER       Energy         Delta-E        Max-DP      RMS-DP      [F,P]     Damp
  0   -125.8541430509   0.000000000000 2.81769927  0.08879707  0.9687148 0.7000
  1   -131.2305755453  -5.376432494410 1.97238949  0.06306807  0.5083933 0.7000
                            ****Activating DIIS****
  2   -132.8177292610  -1.587153715635 1.38067264  0.04439495  0.1815746 0.7000
  3   -133.3979475646  -0.580218303572 3.22156950  0.10280314  0.0735979 0.0000
  4   -134.4344968121  -1.036549247536 0.02596811  0.00134103  0.1854955 0.7000
  5   -134.5521307100  -0.117633897899 0.08009412  0.00478007  0.0822374 0.0000
  6   -134.6096209254  -0.057490215372 0.04414484  0.00183700  0.0283398 0.0000
  7   -134.6134610010  -0.003840075662 0.04639401  0.00181097  0.0257140 0.0000
  8   -134.6176929156  -0.004231914616 0.05225137  0.00196552  0.0234282 0.0000
  9   -134.6208820235  -0.003189107820 0.06561635  0.00238967  0.0205852 0.0000
 10   -134.6239355946  -0.003053571161 0.07110365  0.00250884  0.0167624 0.0000
 11   -134.6264684694  -0.002532874800 0.12806020  0.00431042  0.0123173 0.0000
 12   -134.6290669930  -0.002598523621 0.03690579  0.00121949  0.0040136 0.0000
 13   -134.6293279622  -0.000260969133 0.01626406  0.00055108  0.0015200 0.0000
 14   -134.6293750870  -0.000047124817 0.00574596  0.00020258  0.0006989 0.0000
 15   -134.6293808290  -0.000005742038 0.00103353  0.00004233  0.0004300 0.0000
                 **** Energy Check signals convergence ****

               *****************************************************
               *                     SUCCESS                       *
               *           SCF CONVERGED AFTER  16 CYCLES          *
               *****************************************************


----------------
TOTAL SCF ENERGY
----------------

Total Energy       :         -134.62938163 Eh           -3663.45172 eV

Components:
Nuclear Repulsion  :            0.00000000 Eh               0.00000 eV
Electronic Energy  :         -134.62938163 Eh           -3663.45172 eV
One Electron Energy:         -237.37594798 Eh           -6459.32793 eV
Two Electron Energy:          102.74656635 Eh            2795.87621 eV

Virial components:
Potential Energy   :         -180.81907602 Eh           -4920.33720 eV
Kinetic Energy     :           46.18969438 Eh            1256.88548 eV
Virial Ratio       :            3.91470605


---------------
SCF CONVERGENCE
---------------

  Last Energy change         ...   -8.0520e-07  Tolerance :   1.0000e-06
  Last MAX-Density change    ...    4.9610e-04  Tolerance :   1.0000e-05
  Last RMS-Density change    ...    2.4984e-05  Tolerance :   1.0000e-06
  Last DIIS Error            ...    3.8209e-04  Tolerance :   1.0000e-06

             **** THE GBW FILE WAS UPDATED (TMB26_C1_atom79.gbw) ****
             **** DENSITY FILE WAS UPDATED (TMB26_C1_atom79.scfp) ****
             **** ENERGY FILE WAS UPDATED (TMB26_C1_atom79.en.tmp) ****
             **** THE GBW FILE WAS UPDATED (TMB26_C1_atom79.gbw) ****
             **** DENSITY FILE WAS UPDATED (TMB26_C1_atom79.scfp) ****
----------------
ORBITAL ENERGIES
----------------

  NO   OCC          E(Eh)            E(eV) 
   0   2.0000      -4.768560      -129.7591 
   1   2.0000      -2.812697       -76.5374 
   2   2.0000      -2.812697       -76.5374 
   3   2.0000      -2.808216       -76.4154 
   4   2.0000      -0.539519       -14.6811 
   5   2.0000      -0.539519       -14.6811 
   6   2.0000      -0.533590       -14.5197 
   7   2.0000      -0.533590       -14.5197 
   8   2.0000      -0.531646       -14.4668 
   9   1.0000      -0.123189        -3.3521 
  10   0.0000      -0.276080        -7.5125 
  11   0.0000      -0.118218        -3.2169 
  12   0.0000      -0.118218        -3.2169 
  13   0.0000       0.041061         1.1173 
  14   0.0000       0.090888         2.4732 
  15   0.0000       0.090888         2.4732 
  16   0.0000       0.094388         2.5684 
  17   0.0000       0.181603         4.9417 
  18   0.0000       0.181603         4.9417 
  19   0.0000       0.180592         4.9141 
  20   0.0000       0.180592         4.9141 
  21   0.0000       0.180242         4.9046 
  22   0.0000       1.014060        27.5940 
  23   0.0000       1.014060        27.5940 
  24   0.0000       1.012739        27.5580 
  25   0.0000       1.470521        40.0149 
  26   0.0000       1.470521        40.0149 
  27   0.0000       1.468897        39.9707 
  28   0.0000       1.468897        39.9707 
  29   0.0000       1.468339        39.9555 
  30   0.0000       2.098860        57.1129 
  31   0.0000      27.418068       746.0836 
  32   0.0000      27.418068       746.0836 
  33   0.0000      27.416810       746.0493 
  34   0.0000      43.995182      1197.1698 
  35   0.0000     204.983208      5577.8767 
CleanUpVectors: The p-vectors have cracked symmetry
CleanUpVectors: The p-vectors have cracked symmetry
CleanUpVectors: The p-vectors have cracked symmetry
CleanUpVectors: The d-vectors have cracked symmetry at i=4
CleanUpVectors: The d-vectors have cracked symmetry at i=5
CleanUpVectors: The d-vectors have cracked symmetry at i=6
CleanUpVectors: The d-vectors have cracked symmetry at i=7
CleanUpVectors: The d-vectors have cracked symmetry at i=8
CleanUpVectors: The p-vectors have cracked symmetry
CleanUpVectors: The p-vectors have cracked symmetry
CleanUpVectors: The p-vectors have cracked symmetry
CleanUpVectors: The p-vectors have cracked symmetry
CleanUpVectors: The p-vectors have cracked symmetry
CleanUpVectors: The p-vectors have cracked symmetry
CleanUpVectors: The d-vectors have cracked symmetry at i=17
CleanUpVectors: The d-vectors have cracked symmetry at i=18
CleanUpVectors: The d-vectors have cracked symmetry at i=19
CleanUpVectors: The d-vectors have cracked symmetry at i=20
CleanUpVectors: The d-vectors have cracked symmetry at i=21
CleanUpVectors: The p-vectors have cracked symmetry
CleanUpVectors: The p-vectors have cracked symmetry
CleanUpVectors: The p-vectors have cracked symmetry
CleanUpVectors: The d-vectors have cracked symmetry at i=25
CleanUpVectors: The d-vectors have cracked symmetry at i=26
CleanUpVectors: The d-vectors have cracked symmetry at i=27
CleanUpVectors: The d-vectors have cracked symmetry at i=28
CleanUpVectors: The d-vectors have cracked symmetry at i=29
CleanUpVectors: The p-vectors have cracked symmetry
CleanUpVectors: The p-vectors have cracked symmetry
CleanUpVectors: The p-vectors have cracked symmetry
--------------------------
ATOM BASIS FOR ELEMENT Au
--------------------------
 NewGTO Au
 S 8
    1         30.000000000000        -0.205979930418
    2         27.000000000000         0.330254086508
    3         14.746824331000        -0.380236344005
    4          5.601724893800         0.849294228943
    5          1.387416244300        -0.943015883933
    6          0.629230319600        -0.424658400702
    7          0.140275176100        -0.011209253997
    8          0.049379413800         0.002040307409
 P 8
    1         15.500000000000        -0.149979527935
    2         14.000000000000         0.236038970971
    3          6.422736820500        -0.314510140657
    4          1.659560168100         0.572653174642
    5          0.794029139900         0.484303099260
    6          0.351251554000         0.118358575296
    7          0.045000000000         0.000866219656
    8          0.118017374900         0.000577179201
 D 22
    1          9.552409865600        -0.009230914136
    2          7.269888693700         0.021542923418
    3          1.774649678900        -0.072996169405
    4          0.799605410600        -0.107599049339
    5          9.552409865600         0.014263852897
    6          7.269888693700        -0.033288695580
    7          1.774649678900         0.112795613423
    8          0.799605410600         0.166264899553
    9          9.552409865600        -0.015035966344
   10          7.269888693700         0.035090638552
   11          1.774649678900        -0.118901327670
   12          0.799605410600        -0.175264947828
   13          9.552409865600        -0.024417435457
   14          7.269888693700         0.056984924173
   15          1.774649678900        -0.193088054844
   16          0.799605410600        -0.284618923285
   17          9.552409865600         0.020121211064
   18          7.269888693700        -0.046958481319
   19          1.774649678900         0.159114396446
   20          0.799605410600         0.234540496211
   21          0.332522793700        -0.082647122336
   22          0.332522793700         0.127708521386
 S 8
    1         30.000000000000        -1.603691194822
    2         27.000000000000         2.571248419749
    3         14.746824331000        -2.960393644151
    4          5.601724893800         3.536829306533
    5          1.387416244300        -2.292847503184
    6          0.629230319600         1.412554608052
    7          0.140275176100        -0.415202425724
    8          0.049379413800         0.159519063353
 S 8
    1         30.000000000000        -1.566243150264
    2         27.000000000000         2.511206794713
    3         14.746824331000        -2.891265027960
    4          5.601724893800         1.466563959117
    5          1.387416244300        -0.723042627941
    6          0.629230319600         0.430861055986
    7          0.140275176100        -0.125970633027
    8          0.049379413800         0.048535731383
 D 22
    1          9.552409865600         0.008290530931
    2          7.269888693700        -0.019348275838
    3          1.774649678900         0.065559812537
    4          0.799605410600         0.096637584702
    5          9.552409865600        -0.002828538621
    6          7.269888693700         0.006601187055
    7          1.774649678900        -0.022367501345
    8          0.799605410600        -0.032970522980
    9          9.552409865600        -0.030194035602
   10          7.269888693700         0.070466238450
   11          1.774649678900        -0.238768220054
   12          0.799605410600        -0.351953173702
   13          9.552409865600        -0.004786540265
   14          7.269888693700         0.011170732263
   15          1.774649678900        -0.037850975416
   16          0.799605410600        -0.055793735541
   17          9.552409865600        -0.022563080406
   18          7.269888693700         0.052657267317
   19          1.774649678900        -0.178424196703
   20          0.799605410600        -0.263003854871
   21          0.332522793700         0.073499168366
   22          0.332522793700        -0.025076227092
 P 8
    1         15.500000000000        -0.020231776194
    2         14.000000000000         0.031840929889
    3          6.422736820500        -0.042426448890
    4          1.659560168100         0.077249148771
    5          0.794029139900         0.135797828284
    6          0.351251554000        -0.108230488998
    7          0.045000000000        -1.048920483950
    8          0.118017374900         0.094137437117
 P 16
    1         15.500000000000        -0.029024259504
    2         14.000000000000         0.045678609880
    3          6.422736820500        -0.060864466402
    4          1.659560168100         0.110820687166
    5         15.500000000000        -0.021688942464
    6         14.000000000000         0.034134229726
    7          6.422736820500        -0.045482156392
    8          1.659560168100         0.082812914054
    9          0.794029139900         0.102034212699
   10          0.794029139900         0.076247050104
   11          0.351251554000         0.236739817514
   12          0.351251554000         0.176908433456
   13          0.045000000000         1.120753159224
   14          0.045000000000         0.837504597961
   15          0.118017374900        -1.467882349845
   16          0.118017374900        -1.096903637653
 D 22
    1          9.552409865600         0.001888891974
    2          7.269888693700        -0.004408258439
    3          1.774649678900         0.014936969026
    4          0.799605410600         0.022017643943
    5          9.552409865600        -0.002918765884
    6          7.269888693700         0.006811757642
    7          1.774649678900        -0.023080999971
    8          0.799605410600        -0.034022246304
    9          9.552409865600         0.006376021095
   10          7.269888693700        -0.014880230943
   11          1.774649678900         0.050420262730
   12          0.799605410600         0.074321329206
   13          9.552409865600         0.004996460500
   14          7.269888693700        -0.011660639925
   15          1.774649678900         0.039510981439
   16          0.799605410600         0.058240645721
   17          9.552409865600        -0.008532425736
   18          7.269888693700         0.019912805112
   19          1.774649678900        -0.067472666875
   20          0.799605410600        -0.099457202636
   21          0.332522793700         0.068849734954
   22          0.332522793700        -0.106388433139
 P 8
    1         15.500000000000        -0.092109331593
    2         14.000000000000         0.144962396838
    3          6.422736820500        -0.193155154134
    4          1.659560168100         0.351692673509
    5          0.794029139900         1.259823273752
    6          0.351251554000        -2.694754298562
    7          0.045000000000        -0.686624358357
    8          0.118017374900         1.854425179272
 D 22
    1          9.552409865600        -0.016793257762
    2          7.269888693700         0.039191770237
    3          1.774649678900        -0.132797626579
    4          0.799605410600        -0.195748605590
    5          9.552409865600         0.025949386469
    6          7.269888693700        -0.060560160911
    7          1.774649678900         0.205202408201
    8          0.799605410600         0.302475927497
    9          9.552409865600        -0.018431235045
   10          7.269888693700         0.043014448971
   11          1.774649678900        -0.145750413863
   12          0.799605410600        -0.214841492372
   13          9.552409865600        -0.044421200486
   14          7.269888693700         0.103669312277
   15          1.774649678900        -0.351273712221
   16          0.799605410600        -0.517790423810
   17          9.552409865600         0.024664777908
   18          7.269888693700        -0.057562167056
   19          1.774649678900         0.195043988053
   20          0.799605410600         0.287502041065
   21          0.332522793700         0.448054513649
   22          0.332522793700        -0.692345696036
 P 16
    1         15.500000000000         0.541413613862
    2         14.000000000000        -0.852081040964
    3          6.422736820500         1.135355432801
    4          1.659560168100        -2.067230301646
    5         15.500000000000        -0.724522611388
    6         14.000000000000         1.140259434020
    7          6.422736820500        -1.519338749462
    8          1.659560168100         2.766378713318
    9          0.794029139900         2.602107981943
   10          0.794029139900        -3.482154903242
   11          0.351251554000        -1.543421843051
   12          0.351251554000         2.065415415442
   13          0.045000000000        -0.214177274572
   14          0.045000000000         0.286613181309
   15          0.118017374900         0.616921059851
   16          0.118017374900        -0.825567081912
 end
  // -----------------------------------------------
  // The basis set
  // -----------------------------------------------
  BAS[ATNO] = new BFNGauss[NSH];
  // Basis function   1 L = s
  InitBFNGauss(BAS[ATNO][  0]);
  BAS[ATNO][  0].l  = 0;
  BAS[ATNO][  0].ng = 8;
  BAS[ATNO][  0].a[  0] =        30.000000000000;     BAS[ATNO][  0].d[  0] =         0.205979930418;
  BAS[ATNO][  0].a[  1] =        27.000000000000;     BAS[ATNO][  0].d[  1] =        -0.330254086508;
  BAS[ATNO][  0].a[  2] =        14.746824331000;     BAS[ATNO][  0].d[  2] =         0.380236344005;
  BAS[ATNO][  0].a[  3] =         5.601724893800;     BAS[ATNO][  0].d[  3] =        -0.849294228943;
  BAS[ATNO][  0].a[  4] =         1.387416244300;     BAS[ATNO][  0].d[  4] =         0.943015883933;
  BAS[ATNO][  0].a[  5] =         0.629230319600;     BAS[ATNO][  0].d[  5] =         0.424658400702;
  BAS[ATNO][  0].a[  6] =         0.140275176100;     BAS[ATNO][  0].d[  6] =         0.011209253997;
  BAS[ATNO][  0].a[  7] =         0.049379413800;     BAS[ATNO][  0].d[  7] =        -0.002040307409;

  // Basis function   2 L = p
  InitBFNGauss(BAS[ATNO][  1]);
  BAS[ATNO][  1].l  = 1;
  BAS[ATNO][  1].ng = 8;
  BAS[ATNO][  1].a[  0] =        15.500000000000;     BAS[ATNO][  1].d[  0] =        -0.149979527935;
  BAS[ATNO][  1].a[  1] =        14.000000000000;     BAS[ATNO][  1].d[  1] =         0.236038970971;
  BAS[ATNO][  1].a[  2] =         6.422736820500;     BAS[ATNO][  1].d[  2] =        -0.314510140657;
  BAS[ATNO][  1].a[  3] =         1.659560168100;     BAS[ATNO][  1].d[  3] =         0.572653174642;
  BAS[ATNO][  1].a[  4] =         0.794029139900;     BAS[ATNO][  1].d[  4] =         0.484303099260;
  BAS[ATNO][  1].a[  5] =         0.351251554000;     BAS[ATNO][  1].d[  5] =         0.118358575296;
  BAS[ATNO][  1].a[  6] =         0.045000000000;     BAS[ATNO][  1].d[  6] =         0.000866219656;
  BAS[ATNO][  1].a[  7] =         0.118017374900;     BAS[ATNO][  1].d[  7] =         0.000577179201;

  // Basis function   3 L = d
  InitBFNGauss(BAS[ATNO][  2]);
  BAS[ATNO][  2].l  = 2;
  BAS[ATNO][  2].ng = 22;
  BAS[ATNO][  2].a[  0] =         9.552409865600;     BAS[ATNO][  2].d[  0] =         0.009230914136;
  BAS[ATNO][  2].a[  1] =         7.269888693700;     BAS[ATNO][  2].d[  1] =        -0.021542923418;
  BAS[ATNO][  2].a[  2] =         1.774649678900;     BAS[ATNO][  2].d[  2] =         0.072996169405;
  BAS[ATNO][  2].a[  3] =         0.799605410600;     BAS[ATNO][  2].d[  3] =         0.107599049339;
  BAS[ATNO][  2].a[  4] =         9.552409865600;     BAS[ATNO][  2].d[  4] =        -0.014263852897;
  BAS[ATNO][  2].a[  5] =         7.269888693700;     BAS[ATNO][  2].d[  5] =         0.033288695580;
  BAS[ATNO][  2].a[  6] =         1.774649678900;     BAS[ATNO][  2].d[  6] =        -0.112795613423;
  BAS[ATNO][  2].a[  7] =         0.799605410600;     BAS[ATNO][  2].d[  7] =        -0.166264899553;
  BAS[ATNO][  2].a[  8] =         9.552409865600;     BAS[ATNO][  2].d[  8] =         0.015035966344;
  BAS[ATNO][  2].a[  9] =         7.269888693700;     BAS[ATNO][  2].d[  9] =        -0.035090638552;
  BAS[ATNO][  2].a[ 10] =         1.774649678900;     BAS[ATNO][  2].d[ 10] =         0.118901327670;
  BAS[ATNO][  2].a[ 11] =         0.799605410600;     BAS[ATNO][  2].d[ 11] =         0.175264947828;
  BAS[ATNO][  2].a[ 12] =         9.552409865600;     BAS[ATNO][  2].d[ 12] =         0.024417435457;
  BAS[ATNO][  2].a[ 13] =         7.269888693700;     BAS[ATNO][  2].d[ 13] =        -0.056984924173;
  BAS[ATNO][  2].a[ 14] =         1.774649678900;     BAS[ATNO][  2].d[ 14] =         0.193088054844;
  BAS[ATNO][  2].a[ 15] =         0.799605410600;     BAS[ATNO][  2].d[ 15] =         0.284618923285;
  BAS[ATNO][  2].a[ 16] =         9.552409865600;     BAS[ATNO][  2].d[ 16] =        -0.020121211064;
  BAS[ATNO][  2].a[ 17] =         7.269888693700;     BAS[ATNO][  2].d[ 17] =         0.046958481319;
  BAS[ATNO][  2].a[ 18] =         1.774649678900;     BAS[ATNO][  2].d[ 18] =        -0.159114396446;
  BAS[ATNO][  2].a[ 19] =         0.799605410600;     BAS[ATNO][  2].d[ 19] =        -0.234540496211;
  BAS[ATNO][  2].a[ 20] =         0.332522793700;     BAS[ATNO][  2].d[ 20] =         0.082647122336;
  BAS[ATNO][  2].a[ 21] =         0.332522793700;     BAS[ATNO][  2].d[ 21] =        -0.127708521386;

  // Basis function   4 L = s
  InitBFNGauss(BAS[ATNO][  3]);
  BAS[ATNO][  3].l  = 0;
  BAS[ATNO][  3].ng = 8;
  BAS[ATNO][  3].a[  0] =        30.000000000000;     BAS[ATNO][  3].d[  0] =        -1.603691194822;
  BAS[ATNO][  3].a[  1] =        27.000000000000;     BAS[ATNO][  3].d[  1] =         2.571248419749;
  BAS[ATNO][  3].a[  2] =        14.746824331000;     BAS[ATNO][  3].d[  2] =        -2.960393644151;
  BAS[ATNO][  3].a[  3] =         5.601724893800;     BAS[ATNO][  3].d[  3] =         3.536829306533;
  BAS[ATNO][  3].a[  4] =         1.387416244300;     BAS[ATNO][  3].d[  4] =        -2.292847503184;
  BAS[ATNO][  3].a[  5] =         0.629230319600;     BAS[ATNO][  3].d[  5] =         1.412554608052;
  BAS[ATNO][  3].a[  6] =         0.140275176100;     BAS[ATNO][  3].d[  6] =        -0.415202425724;
  BAS[ATNO][  3].a[  7] =         0.049379413800;     BAS[ATNO][  3].d[  7] =         0.159519063353;

  // Basis function   5 L = s
  InitBFNGauss(BAS[ATNO][  4]);
  BAS[ATNO][  4].l  = 0;
  BAS[ATNO][  4].ng = 8;
  BAS[ATNO][  4].a[  0] =        30.000000000000;     BAS[ATNO][  4].d[  0] =         1.566243150264;
  BAS[ATNO][  4].a[  1] =        27.000000000000;     BAS[ATNO][  4].d[  1] =        -2.511206794713;
  BAS[ATNO][  4].a[  2] =        14.746824331000;     BAS[ATNO][  4].d[  2] =         2.891265027960;
  BAS[ATNO][  4].a[  3] =         5.601724893800;     BAS[ATNO][  4].d[  3] =        -1.466563959117;
  BAS[ATNO][  4].a[  4] =         1.387416244300;     BAS[ATNO][  4].d[  4] =         0.723042627941;
  BAS[ATNO][  4].a[  5] =         0.629230319600;     BAS[ATNO][  4].d[  5] =        -0.430861055986;
  BAS[ATNO][  4].a[  6] =         0.140275176100;     BAS[ATNO][  4].d[  6] =         0.125970633027;
  BAS[ATNO][  4].a[  7] =         0.049379413800;     BAS[ATNO][  4].d[  7] =        -0.048535731383;

  // Basis function   6 L = d
  InitBFNGauss(BAS[ATNO][  5]);
  BAS[ATNO][  5].l  = 2;
  BAS[ATNO][  5].ng = 22;
  BAS[ATNO][  5].a[  0] =         9.552409865600;     BAS[ATNO][  5].d[  0] =        -0.008290530931;
  BAS[ATNO][  5].a[  1] =         7.269888693700;     BAS[ATNO][  5].d[  1] =         0.019348275838;
  BAS[ATNO][  5].a[  2] =         1.774649678900;     BAS[ATNO][  5].d[  2] =        -0.065559812537;
  BAS[ATNO][  5].a[  3] =         0.799605410600;     BAS[ATNO][  5].d[  3] =        -0.096637584702;
  BAS[ATNO][  5].a[  4] =         9.552409865600;     BAS[ATNO][  5].d[  4] =         0.002828538621;
  BAS[ATNO][  5].a[  5] =         7.269888693700;     BAS[ATNO][  5].d[  5] =        -0.006601187055;
  BAS[ATNO][  5].a[  6] =         1.774649678900;     BAS[ATNO][  5].d[  6] =         0.022367501345;
  BAS[ATNO][  5].a[  7] =         0.799605410600;     BAS[ATNO][  5].d[  7] =         0.032970522980;
  BAS[ATNO][  5].a[  8] =         9.552409865600;     BAS[ATNO][  5].d[  8] =         0.030194035602;
  BAS[ATNO][  5].a[  9] =         7.269888693700;     BAS[ATNO][  5].d[  9] =        -0.070466238450;
  BAS[ATNO][  5].a[ 10] =         1.774649678900;     BAS[ATNO][  5].d[ 10] =         0.238768220054;
  BAS[ATNO][  5].a[ 11] =         0.799605410600;     BAS[ATNO][  5].d[ 11] =         0.351953173702;
  BAS[ATNO][  5].a[ 12] =         9.552409865600;     BAS[ATNO][  5].d[ 12] =         0.004786540265;
  BAS[ATNO][  5].a[ 13] =         7.269888693700;     BAS[ATNO][  5].d[ 13] =        -0.011170732263;
  BAS[ATNO][  5].a[ 14] =         1.774649678900;     BAS[ATNO][  5].d[ 14] =         0.037850975416;
  BAS[ATNO][  5].a[ 15] =         0.799605410600;     BAS[ATNO][  5].d[ 15] =         0.055793735541;
  BAS[ATNO][  5].a[ 16] =         9.552409865600;     BAS[ATNO][  5].d[ 16] =         0.022563080406;
  BAS[ATNO][  5].a[ 17] =         7.269888693700;     BAS[ATNO][  5].d[ 17] =        -0.052657267317;
  BAS[ATNO][  5].a[ 18] =         1.774649678900;     BAS[ATNO][  5].d[ 18] =         0.178424196703;
  BAS[ATNO][  5].a[ 19] =         0.799605410600;     BAS[ATNO][  5].d[ 19] =         0.263003854871;
  BAS[ATNO][  5].a[ 20] =         0.332522793700;     BAS[ATNO][  5].d[ 20] =        -0.073499168366;
  BAS[ATNO][  5].a[ 21] =         0.332522793700;     BAS[ATNO][  5].d[ 21] =         0.025076227092;

  // Basis function   7 L = p
  InitBFNGauss(BAS[ATNO][  6]);
  BAS[ATNO][  6].l  = 1;
  BAS[ATNO][  6].ng = 8;
  BAS[ATNO][  6].a[  0] =        15.500000000000;     BAS[ATNO][  6].d[  0] =         0.020231776194;
  BAS[ATNO][  6].a[  1] =        14.000000000000;     BAS[ATNO][  6].d[  1] =        -0.031840929889;
  BAS[ATNO][  6].a[  2] =         6.422736820500;     BAS[ATNO][  6].d[  2] =         0.042426448890;
  BAS[ATNO][  6].a[  3] =         1.659560168100;     BAS[ATNO][  6].d[  3] =        -0.077249148771;
  BAS[ATNO][  6].a[  4] =         0.794029139900;     BAS[ATNO][  6].d[  4] =        -0.135797828284;
  BAS[ATNO][  6].a[  5] =         0.351251554000;     BAS[ATNO][  6].d[  5] =         0.108230488998;
  BAS[ATNO][  6].a[  6] =         0.045000000000;     BAS[ATNO][  6].d[  6] =         1.048920483950;
  BAS[ATNO][  6].a[  7] =         0.118017374900;     BAS[ATNO][  6].d[  7] =        -0.094137437117;

  // Basis function   8 L = p
  InitBFNGauss(BAS[ATNO][  7]);
  BAS[ATNO][  7].l  = 1;
  BAS[ATNO][  7].ng = 16;
  BAS[ATNO][  7].a[  0] =        15.500000000000;     BAS[ATNO][  7].d[  0] =         0.029024259504;
  BAS[ATNO][  7].a[  1] =        14.000000000000;     BAS[ATNO][  7].d[  1] =        -0.045678609880;
  BAS[ATNO][  7].a[  2] =         6.422736820500;     BAS[ATNO][  7].d[  2] =         0.060864466402;
  BAS[ATNO][  7].a[  3] =         1.659560168100;     BAS[ATNO][  7].d[  3] =        -0.110820687166;
  BAS[ATNO][  7].a[  4] =        15.500000000000;     BAS[ATNO][  7].d[  4] =         0.021688942464;
  BAS[ATNO][  7].a[  5] =        14.000000000000;     BAS[ATNO][  7].d[  5] =        -0.034134229726;
  BAS[ATNO][  7].a[  6] =         6.422736820500;     BAS[ATNO][  7].d[  6] =         0.045482156392;
  BAS[ATNO][  7].a[  7] =         1.659560168100;     BAS[ATNO][  7].d[  7] =        -0.082812914054;
  BAS[ATNO][  7].a[  8] =         0.794029139900;     BAS[ATNO][  7].d[  8] =        -0.102034212699;
  BAS[ATNO][  7].a[  9] =         0.794029139900;     BAS[ATNO][  7].d[  9] =        -0.076247050104;
  BAS[ATNO][  7].a[ 10] =         0.351251554000;     BAS[ATNO][  7].d[ 10] =        -0.236739817514;
  BAS[ATNO][  7].a[ 11] =         0.351251554000;     BAS[ATNO][  7].d[ 11] =        -0.176908433456;
  BAS[ATNO][  7].a[ 12] =         0.045000000000;     BAS[ATNO][  7].d[ 12] =        -1.120753159224;
  BAS[ATNO][  7].a[ 13] =         0.045000000000;     BAS[ATNO][  7].d[ 13] =        -0.837504597961;
  BAS[ATNO][  7].a[ 14] =         0.118017374900;     BAS[ATNO][  7].d[ 14] =         1.467882349845;
  BAS[ATNO][  7].a[ 15] =         0.118017374900;     BAS[ATNO][  7].d[ 15] =         1.096903637653;

  // Basis function   9 L = d
  InitBFNGauss(BAS[ATNO][  8]);
  BAS[ATNO][  8].l  = 2;
  BAS[ATNO][  8].ng = 22;
  BAS[ATNO][  8].a[  0] =         9.552409865600;     BAS[ATNO][  8].d[  0] =        -0.001888891974;
  BAS[ATNO][  8].a[  1] =         7.269888693700;     BAS[ATNO][  8].d[  1] =         0.004408258439;
  BAS[ATNO][  8].a[  2] =         1.774649678900;     BAS[ATNO][  8].d[  2] =        -0.014936969026;
  BAS[ATNO][  8].a[  3] =         0.799605410600;     BAS[ATNO][  8].d[  3] =        -0.022017643943;
  BAS[ATNO][  8].a[  4] =         9.552409865600;     BAS[ATNO][  8].d[  4] =         0.002918765884;
  BAS[ATNO][  8].a[  5] =         7.269888693700;     BAS[ATNO][  8].d[  5] =        -0.006811757642;
  BAS[ATNO][  8].a[  6] =         1.774649678900;     BAS[ATNO][  8].d[  6] =         0.023080999971;
  BAS[ATNO][  8].a[  7] =         0.799605410600;     BAS[ATNO][  8].d[  7] =         0.034022246304;
  BAS[ATNO][  8].a[  8] =         9.552409865600;     BAS[ATNO][  8].d[  8] =        -0.006376021095;
  BAS[ATNO][  8].a[  9] =         7.269888693700;     BAS[ATNO][  8].d[  9] =         0.014880230943;
  BAS[ATNO][  8].a[ 10] =         1.774649678900;     BAS[ATNO][  8].d[ 10] =        -0.050420262730;
  BAS[ATNO][  8].a[ 11] =         0.799605410600;     BAS[ATNO][  8].d[ 11] =        -0.074321329206;
  BAS[ATNO][  8].a[ 12] =         9.552409865600;     BAS[ATNO][  8].d[ 12] =        -0.004996460500;
  BAS[ATNO][  8].a[ 13] =         7.269888693700;     BAS[ATNO][  8].d[ 13] =         0.011660639925;
  BAS[ATNO][  8].a[ 14] =         1.774649678900;     BAS[ATNO][  8].d[ 14] =        -0.039510981439;
  BAS[ATNO][  8].a[ 15] =         0.799605410600;     BAS[ATNO][  8].d[ 15] =        -0.058240645721;
  BAS[ATNO][  8].a[ 16] =         9.552409865600;     BAS[ATNO][  8].d[ 16] =         0.008532425736;
  BAS[ATNO][  8].a[ 17] =         7.269888693700;     BAS[ATNO][  8].d[ 17] =        -0.019912805112;
  BAS[ATNO][  8].a[ 18] =         1.774649678900;     BAS[ATNO][  8].d[ 18] =         0.067472666875;
  BAS[ATNO][  8].a[ 19] =         0.799605410600;     BAS[ATNO][  8].d[ 19] =         0.099457202636;
  BAS[ATNO][  8].a[ 20] =         0.332522793700;     BAS[ATNO][  8].d[ 20] =        -0.068849734954;
  BAS[ATNO][  8].a[ 21] =         0.332522793700;     BAS[ATNO][  8].d[ 21] =         0.106388433139;

  // Basis function  10 L = p
  InitBFNGauss(BAS[ATNO][  9]);
  BAS[ATNO][  9].l  = 1;
  BAS[ATNO][  9].ng = 8;
  BAS[ATNO][  9].a[  0] =        15.500000000000;     BAS[ATNO][  9].d[  0] =         0.092109331593;
  BAS[ATNO][  9].a[  1] =        14.000000000000;     BAS[ATNO][  9].d[  1] =        -0.144962396838;
  BAS[ATNO][  9].a[  2] =         6.422736820500;     BAS[ATNO][  9].d[  2] =         0.193155154134;
  BAS[ATNO][  9].a[  3] =         1.659560168100;     BAS[ATNO][  9].d[  3] =        -0.351692673509;
  BAS[ATNO][  9].a[  4] =         0.794029139900;     BAS[ATNO][  9].d[  4] =        -1.259823273752;
  BAS[ATNO][  9].a[  5] =         0.351251554000;     BAS[ATNO][  9].d[  5] =         2.694754298562;
  BAS[ATNO][  9].a[  6] =         0.045000000000;     BAS[ATNO][  9].d[  6] =         0.686624358357;
  BAS[ATNO][  9].a[  7] =         0.118017374900;     BAS[ATNO][  9].d[  7] =        -1.854425179272;

  // Basis function  11 L = d
  InitBFNGauss(BAS[ATNO][ 10]);
  BAS[ATNO][ 10].l  = 2;
  BAS[ATNO][ 10].ng = 22;
  BAS[ATNO][ 10].a[  0] =         9.552409865600;     BAS[ATNO][ 10].d[  0] =         0.016793257762;
  BAS[ATNO][ 10].a[  1] =         7.269888693700;     BAS[ATNO][ 10].d[  1] =        -0.039191770237;
  BAS[ATNO][ 10].a[  2] =         1.774649678900;     BAS[ATNO][ 10].d[  2] =         0.132797626579;
  BAS[ATNO][ 10].a[  3] =         0.799605410600;     BAS[ATNO][ 10].d[  3] =         0.195748605590;
  BAS[ATNO][ 10].a[  4] =         9.552409865600;     BAS[ATNO][ 10].d[  4] =        -0.025949386469;
  BAS[ATNO][ 10].a[  5] =         7.269888693700;     BAS[ATNO][ 10].d[  5] =         0.060560160911;
  BAS[ATNO][ 10].a[  6] =         1.774649678900;     BAS[ATNO][ 10].d[  6] =        -0.205202408201;
  BAS[ATNO][ 10].a[  7] =         0.799605410600;     BAS[ATNO][ 10].d[  7] =        -0.302475927497;
  BAS[ATNO][ 10].a[  8] =         9.552409865600;     BAS[ATNO][ 10].d[  8] =         0.018431235045;
  BAS[ATNO][ 10].a[  9] =         7.269888693700;     BAS[ATNO][ 10].d[  9] =        -0.043014448971;
  BAS[ATNO][ 10].a[ 10] =         1.774649678900;     BAS[ATNO][ 10].d[ 10] =         0.145750413863;
  BAS[ATNO][ 10].a[ 11] =         0.799605410600;     BAS[ATNO][ 10].d[ 11] =         0.214841492372;
  BAS[ATNO][ 10].a[ 12] =         9.552409865600;     BAS[ATNO][ 10].d[ 12] =         0.044421200486;
  BAS[ATNO][ 10].a[ 13] =         7.269888693700;     BAS[ATNO][ 10].d[ 13] =        -0.103669312277;
  BAS[ATNO][ 10].a[ 14] =         1.774649678900;     BAS[ATNO][ 10].d[ 14] =         0.351273712221;
  BAS[ATNO][ 10].a[ 15] =         0.799605410600;     BAS[ATNO][ 10].d[ 15] =         0.517790423810;
  BAS[ATNO][ 10].a[ 16] =         9.552409865600;     BAS[ATNO][ 10].d[ 16] =        -0.024664777908;
  BAS[ATNO][ 10].a[ 17] =         7.269888693700;     BAS[ATNO][ 10].d[ 17] =         0.057562167056;
  BAS[ATNO][ 10].a[ 18] =         1.774649678900;     BAS[ATNO][ 10].d[ 18] =        -0.195043988053;
  BAS[ATNO][ 10].a[ 19] =         0.799605410600;     BAS[ATNO][ 10].d[ 19] =        -0.287502041065;
  BAS[ATNO][ 10].a[ 20] =         0.332522793700;     BAS[ATNO][ 10].d[ 20] =        -0.448054513649;
  BAS[ATNO][ 10].a[ 21] =         0.332522793700;     BAS[ATNO][ 10].d[ 21] =         0.692345696036;

  // Basis function  12 L = p
  InitBFNGauss(BAS[ATNO][ 11]);
  BAS[ATNO][ 11].l  = 1;
  BAS[ATNO][ 11].ng = 16;
  BAS[ATNO][ 11].a[  0] =        15.500000000000;     BAS[ATNO][ 11].d[  0] =        -0.541413613862;
  BAS[ATNO][ 11].a[  1] =        14.000000000000;     BAS[ATNO][ 11].d[  1] =         0.852081040964;
  BAS[ATNO][ 11].a[  2] =         6.422736820500;     BAS[ATNO][ 11].d[  2] =        -1.135355432801;
  BAS[ATNO][ 11].a[  3] =         1.659560168100;     BAS[ATNO][ 11].d[  3] =         2.067230301646;
  BAS[ATNO][ 11].a[  4] =        15.500000000000;     BAS[ATNO][ 11].d[  4] =         0.724522611388;
  BAS[ATNO][ 11].a[  5] =        14.000000000000;     BAS[ATNO][ 11].d[  5] =        -1.140259434020;
  BAS[ATNO][ 11].a[  6] =         6.422736820500;     BAS[ATNO][ 11].d[  6] =         1.519338749462;
  BAS[ATNO][ 11].a[  7] =         1.659560168100;     BAS[ATNO][ 11].d[  7] =        -2.766378713318;
  BAS[ATNO][ 11].a[  8] =         0.794029139900;     BAS[ATNO][ 11].d[  8] =        -2.602107981943;
  BAS[ATNO][ 11].a[  9] =         0.794029139900;     BAS[ATNO][ 11].d[  9] =         3.482154903242;
  BAS[ATNO][ 11].a[ 10] =         0.351251554000;     BAS[ATNO][ 11].d[ 10] =         1.543421843051;
  BAS[ATNO][ 11].a[ 11] =         0.351251554000;     BAS[ATNO][ 11].d[ 11] =        -2.065415415442;
  BAS[ATNO][ 11].a[ 12] =         0.045000000000;     BAS[ATNO][ 11].d[ 12] =         0.214177274572;
  BAS[ATNO][ 11].a[ 13] =         0.045000000000;     BAS[ATNO][ 11].d[ 13] =        -0.286613181309;
  BAS[ATNO][ 11].a[ 14] =         0.118017374900;     BAS[ATNO][ 11].d[ 14] =        -0.616921059851;
  BAS[ATNO][ 11].a[ 15] =         0.118017374900;     BAS[ATNO][ 11].d[ 15] =         0.825567081912;

-------------------------------------------
RADIAL EXPECTATION VALUES <R**-3> TO <R**3>
-------------------------------------------
   0 :     0.000000     1.381594     1.126927     0.966451     1.018560     1.171981
   1 :     1.307539     1.087008     0.993947     1.108601     1.356686     1.835890
   2 :     1.307539     1.087008     0.993947     1.108601     1.356686     1.835890
   3 :     1.310005     1.088626     0.994826     1.107206     1.352627     1.826181
   4 :     0.618851     0.630380     0.738222     1.579160     2.926344    31.907311
   5 :     0.618851     0.630380     0.738222     1.579160     2.926344    31.907311
   6 :     0.000000     0.175202     0.359925     3.365198    13.127682    58.134504
   7 :     0.000000     0.170728     0.328623     4.216043    21.646683   124.275489
   8 :     0.000000     0.799680     0.764707     1.903065     5.424445    22.195202
   9 :     0.000000     6.459926     2.213485     0.570323     0.547689     1.278195
  10 :     0.000000    58.952140     6.152592     0.221038     0.085885     0.126031
  11 :     0.619367     0.630675     0.738310     1.579929     2.932459    32.075678
  12 :     0.619367     0.630675     0.738310     1.579929     2.932459    32.075678
  13 :     0.619210     0.630622     0.738226     1.580519     2.935837    32.120709
  14 :     0.044739     0.083248     0.252099     4.649600    24.313263   140.053617
  15 :     0.031199     0.065339     0.225562     5.094986    28.679182   175.013692
  16 :     0.031199     0.065339     0.225562     5.094986    28.679182   175.013692
  17 :     0.082678     0.126318     0.300017     4.380737    23.976587   153.601073
  18 :     0.082678     0.126318     0.300017     4.380737    23.976587   153.601073
  19 :     0.069680     0.109084     0.274310     4.817568    28.272949   188.065443
  20 :     0.082365     0.124633     0.301256     3.864944    16.125765   353.929961
  21 :    11.763565     3.392824     1.411432     1.396011     3.606918    14.987681
  22 :     0.082365     0.124633     0.301256     3.864944    16.125765   353.929961
  23 :     0.083713     0.125808     0.302205     3.860133    16.097049   353.196760
  24 :     0.083713     0.125808     0.302205     3.860133    16.097049   353.196760
  25 :     0.084249     0.126308     0.302613     3.858079    16.085146   352.855929
  26 :     0.404606     0.383884     0.515371     2.739287    10.329999    51.422220
  27 :     0.404606     0.383884     0.515371     2.739287    10.329999    51.422220
  28 :     0.401457     0.381595     0.513694     2.749079    10.402735    51.922651
  29 :     0.526207     0.500450     0.604704     2.273147     6.717851   121.304633
  30 :     0.526207     0.500450     0.604704     2.273147     6.717851   121.304633
  31 :     0.524343     0.498980     0.603667     2.277189     6.740452   121.869468
  32 :     0.524343     0.498980     0.603667     2.277189     6.740452   121.869468
  33 :     0.523689     0.498499     0.603326     2.278533     6.748020   122.054795
  34 :    11.763424     3.392827     1.411464     1.395853     3.606036    14.982700
  35 :    11.763424     3.392827     1.411464     1.395853     3.606036    14.982700
Making the total density                ... o.k.
o.k.
Initializing the integrals              ... done
Making exponents                        ... done
Making rho(0)                           ... done (         0.000030564)
Integral calculation                    ... Two index integrals                     ... done
Solving the equation system             ... done
atomic density will be written to file TMB26_C1_atom79.adf

-------
TIMINGS
-------

Total SCF time: 0 days 0 hours 0 min 0 sec 

Total time                  ....       0.563 sec
Sum of individual times     ....       0.277 sec  ( 49.3%)

Fock matrix formation       ....       0.203 sec  ( 36.0%)
Diagonalization             ....       0.071 sec  ( 12.7%)
Density matrix formation    ....       0.000 sec  (  0.1%)
Population analysis         ....       0.000 sec  (  0.0%)
Initial guess               ....       0.000 sec  (  0.0%)
Orbital Transformation      ....       0.000 sec  (  0.0%)
Orbital Orthonormalization  ....       0.000 sec  (  0.0%)
DIIS solution               ....       0.003 sec  (  0.5%)

-------------------------   --------------------
FINAL SINGLE POINT ENERGY      -134.629381634225
-------------------------   --------------------


                            ***************************************
                            *     ORCA property calculations      *
                            ***************************************

                                    ---------------------
                                    Active property flags
                                    ---------------------
   (+) Dipole Moment


------------------------------------------------------------------------------
                       ORCA ELECTRIC PROPERTIES CALCULATION
------------------------------------------------------------------------------

Dipole Moment Calculation                       ... on
Quadrupole Moment Calculation                   ... off
Polarizability Calculation                      ... off
GBWName                                         ... TMB26_C1_atom79.gbw
Electron density file                           ... TMB26_C1_atom79.scfp
The origin for moment calculation is the CENTER OF MASS  = ( 0.000000,  0.000000  0.000000)

-------------
DIPOLE MOMENT
-------------
                                X             Y             Z
Electronic contribution:      0.00000       0.00000       0.00000
Nuclear contribution   :      0.00000       0.00000       0.00000
                        -----------------------------------------
Total Dipole Moment    :      0.00000       0.00000       0.00000
                        -----------------------------------------
Magnitude (a.u.)       :      0.00000
Magnitude (Debye)      :      0.00000



--------------------
Rotational spectrum 
--------------------
 
Rotational constants in cm-1:     0.000000     0.000000     0.000000 
Rotational constants in MHz :     0.000000     0.000000     0.000000 

 Dipole components along the rotational axes: 
x,y,z [a.u.] :     0.000000     0.000000     0.000000 
x,y,z [Debye]:     0.000000     0.000000     0.000000 

 

Timings for individual modules:

Sum of individual times         ...        0.806 sec (=   0.013 min)
GTO integral calculation        ...        0.225 sec (=   0.004 min)  27.9 %
SCF iterations                  ...        0.581 sec (=   0.010 min)  72.1 %
                             ****ORCA TERMINATED NORMALLY****
TOTAL RUN TIME: 0 days 0 hours 0 minutes 0 seconds 948 msec
