
                                 *****************
                                 * O   R   C   A *
                                 *****************

           --- An Ab Initio, DFT and Semiempirical electronic structure package ---

                  #######################################################
                  #                        -***-                        #
                  #          Department of theory and spectroscopy      #
                  #               Directorship: Frank Neese             #
                  #        Max Planck Institute fuer Kohlenforschung    #
                  #                Kaiser Wilhelm Platz 1               #
                  #                 D-45470 Muelheim/Ruhr               #
                  #                      Germany                        #
                  #                                                     #
                  #                  All rights reserved                #
                  #                        -***-                        #
                  #######################################################


                         Program Version 4.2.0 -  RELEASE  -


 With contributions from (in alphabetic order):
   Daniel Aravena         : Magnetic Suceptibility
   Michael Atanasov       : Ab Initio Ligand Field Theory (pilot matlab implementation)
   Alexander A. Auer      : GIAO ZORA, VPT2
   Ute Becker             : Parallelization
   Giovanni Bistoni       : ED, misc. LED, open-shell LED, HFLED
   Martin Brehm           : Molecular dynamics
   Dmytro Bykov           : SCF Hessian
   Vijay G. Chilkuri      : MRCI spin determinant printing, contributions to CSF-ICE
   Dipayan Datta          : RHF DLPNO-CCSD density
   Achintya Kumar Dutta   : EOM-CC, STEOM-CC
   Dmitry Ganyushin       : Spin-Orbit,Spin-Spin,Magnetic field MRCI
   Miquel Garcia          : C-PCM Hessian, Gaussian charge scheme
   Yang Guo               : DLPNO-NEVPT2, CIM, IAO-localization
   Andreas Hansen         : Spin unrestricted coupled pair/coupled cluster methods
   Benjamin Helmich-Paris : CASSCF linear response (MC-RPA)
   Lee Huntington         : MR-EOM, pCC
   Robert Izsak           : Overlap fitted RIJCOSX, COSX-SCS-MP3, EOM
   Christian Kollmar      : KDIIS, OOCD, Brueckner-CCSD(T), CCSD density
   Simone Kossmann        : Meta GGA functionals, TD-DFT gradient, OOMP2, MP2 Hessian
   Martin Krupicka        : AUTO-CI
   Lucas Lang             : DCDCAS
   Dagmar Lenk            : GEPOL surface, SMD
   Dimitrios Liakos       : Extrapolation schemes; Compound Job, initial MDCI parallelization
   Dimitrios Manganas     : Further ROCIS development; embedding schemes
   Dimitrios Pantazis     : SARC Basis sets
   Taras Petrenko         : DFT Hessian,TD-DFT gradient, ASA, ECA, R-Raman, ABS, FL, XAS/XES, NRVS
   Peter Pinski           : DLPNO-MP2, DLPNO-MP2 Gradient
   Christoph Reimann      : Effective Core Potentials
   Marius Retegan         : Local ZFS, SOC
   Christoph Riplinger    : Optimizer, TS searches, QM/MM, DLPNO-CCSD(T), (RO)-DLPNO pert. Triples
   Tobias Risthaus        : Range-separated hybrids, TD-DFT gradient, RPA, STAB
   Michael Roemelt        : Original ROCIS implementation
   Masaaki Saitow         : Open-shell DLPNO-CCSD energy and density
   Barbara Sandhoefer     : DKH picture change effects
   Avijit Sen             : IP-ROCIS
   Kantharuban Sivalingam : CASSCF convergence, NEVPT2, FIC-MRCI
   Bernardo de Souza      : ESD, SOC TD-DFT
   Georgi Stoychev        : AutoAux, RI-MP2 NMR
   Willem Van den Heuvel  : Paramagnetic NMR
   Boris Wezisla          : Elementary symmetry handling
   Frank Wennmohs         : Technical directorship


 We gratefully acknowledge several colleagues who have allowed us to
 interface, adapt or use parts of their codes:
   Stefan Grimme, W. Hujo, H. Kruse,             : VdW corrections, initial TS optimization,
                  C. Bannwarth                     DFT functionals, gCP, sTDA/sTD-DF
   Ed Valeev, F. Pavosevic, A. Kumar             : LibInt (2-el integral package), F12 methods
   Garnet Chan, S. Sharma, J. Yang, R. Olivares  : DMRG
   Ulf Ekstrom                                   : XCFun DFT Library
   Mihaly Kallay                                 : mrcc  (arbitrary order and MRCC methods)
   Andreas Klamt, Michael Diedenhofen            : otool_cosmo (COSMO solvation model)
   Jiri Pittner, Ondrej Demel                    : Mk-CCSD
   Frank Weinhold                                : gennbo (NPA and NBO analysis)
   Christopher J. Cramer and Donald G. Truhlar   : smd solvation model
   Lars Goerigk                                  : TD-DFT with DH, B97 family of functionals
   V. Asgeirsson, H. Jonsson                     : NEB implementation
   FAccTs GmbH                                   : IRC, NEB, NEB-TS, Multilevel, MM, QM/MM, CI optimization
   S Lehtola, MJT Oliveira, MAL Marques          : LibXC Library


 Your calculation uses the libint2 library for the computation of 2-el integrals
 For citations please refer to: http://libint.valeyev.net

 Your ORCA version has been built with support for libXC version: 4.2.3
 For citations please refer to: https://tddft.org/programs/libxc/

 This ORCA versions uses:
   CBLAS   interface :  Fast vector & matrix operations
   LAPACKE interface :  Fast linear algebra routines
   SCALAPACK package :  Parallel linear algebra routines


Your calculation utilizes the atom-pairwise dispersion correction
with the Becke-Johnson damping scheme (D3BJ)
Cite in your paper:
S.Grimme, S.Ehrlich, L.Goerigk, J Comput Chem, (2011), 32, 1456–1465 
S.Grimme, J.Antony, S.Ehrlich and H.Krieg, J.Chem.Phys., 132, (2010), 154104 
   

----- Orbital basis set information -----
Your calculation utilizes the basis: def2-TZVPPD
   F. Weigend and R. Ahlrichs, Phys. Chem. Chem. Phys. 7, 3297 (2005).
   D. Rappoport and F. Furche, J. Chem. Phys. 133 134105 (2010).

----- AuxC basis set information -----
Your calculation utilizes the auxiliary basis: def2-TZVPPD/C
   A. Hellweg, C. Hattig, S. Hofener and W. Klopper, Theor. Chem. Acc. 117, 587 (2007).

----- AuxJK basis set information -----
Your calculation utilizes the auxiliary basis: def2/JK
   H-Ba, Hf-Rn: F. Weigend, J. Comput. Chem. 29, 167 (2008).

cite the ECPs for Re [Def2-ECP] as follows:
Ce-Yb(ecp-28): M. Dolg, H. Stoll, H.Preuss, J. Chem. Phys., 1989, 90, 1730-1734.
Y-Cd(ecp-28), Hf-Hg(ecp-46): D. Andrae,U. Haeussermann, M. Dolg, H. Stoll, H. Preuss, Theor. Chim. Acta, 1990, 77, 123-141.
In-Sb(ecp-28), Tl-Bi(ecp-46): B. Metz, H. Stoll, M. Dolg, J. Chem. Phys., 2000, 113, 2563-2569.
Te-Xe(ecp-28), Po-Rn(ecp-46): K. A. Peterson, D. Figgen, E. Goll, H. Stoll, M. Dolg, J. Chem. Phys., 2003, 119, 11113-11123.
Rb(ecp-28), Cs(ecp-46): T. Leininger, A. Nicklass, W. Kuechle, H. Stoll, M. Dolg, A. Bergner, Chem. Phys. Lett., 1996, 255, 274-280.
Sr(ecp-28), Ba(ecp-46): M. Kaupp, P. V. Schleyer, H. Stoll and H. Preuss, J. Chem. Phys., 1991, 94, 1360-1366.
La(ecp-46): M. Dolg, H. Stoll, A. Savin, H. Preuss, Theor. Chim. Acta, 1989, 75, 173-194.
Lu(ecp-28): X. Cao, M. Dolg, J. Chem. Phys., 2001, 115, 7348-7355.

ECP parameters for Re [Def2-ECP] have been obtained from:
TURBOMOLE (7.0.2)

================================================================================
                                        WARNINGS
                       Please study these warnings very carefully!
================================================================================


WARNING: No MP2 level density has been requested!
         To caclulate MP2 level properties use
         %mp2 Density relaxed end
         or
         %mp2 Density unrelaxed end
         Otherwise for double-hybrid DFT only the energy is correct!

WARNING: There are different parametrizations of Gershom Martin's DSD-DFs
         for use with and without D3(BJ)!
         You are using the D3(BJ) parametrized version,
         consistent with the 2013 article (S. Kozuch and J. M. L. Martin, JCC 2013, 34, 2327)

WARNING: The frozen-core approximation is turned on by default for 
         the MP2 part of double-hybrid DFT.

INFO   : the flag for use of LIBINT has been found!

================================================================================
                                       INPUT FILE
================================================================================
NAME = TMB20_I1.in
|  1> #
|  2> # TMB20_I1 ri-DSD-BLYP/2013-D3BJ/Def2-TZVPPD
|  3> #
|  4> ! rijk ri-dsd-blyp/2013 d3bj def2-tzvppd def2/jk def2-tzvppd/c grid4 nofinalgrid
|  5> 
|  6> *xyz 0 1
|  7> Re       0.721260    0.301703   -0.012347 
|  8> C        1.851141    0.452958   -1.678261 
|  9> C        1.971728    0.634914    1.425372 
| 10> C        0.763580    2.214165   -0.101283 
| 11> Br       1.710512   -2.064741    0.019177 
| 12> O        0.816608    3.358474   -0.166463 
| 13> O        2.493283    0.513036   -2.612271 
| 14> O        2.652573    0.808904    2.320449 
| 15> C       -1.780395   -0.133590    1.665167 
| 16> C       -0.470905   -0.371203    1.638632 
| 17> C       -2.365069    0.652857    0.526821 
| 18> C       -3.493010   -0.159458   -0.075600 
| 19> O       -3.300943   -1.161632   -0.733339 
| 20> O       -4.693453    0.297769    0.229376 
| 21> C       -1.280010    0.876972   -0.512116 
| 22> O       -0.953000   -0.240509   -1.297416 
| 23> H       -1.566319   -0.977006   -1.049921 
| 24> C       -5.797043   -0.483161   -0.244906 
| 25> H       -6.688437    0.024549    0.111717 
| 26> H       -5.787691   -0.527184   -1.333247 
| 27> H       -5.742358   -1.494851    0.155119 
| 28> H       -0.050439   -0.962173    2.449658 
| 29> H       -2.758296    1.619346    0.851818 
| 30> H       -2.454065   -0.501260    2.435709 
| 31> H       -1.435420    1.741704   -1.151672 
| 32> *
| 33> 
| 34> %maxcore 5000
| 35> 
| 36> %pal
| 37> nprocs = 24
| 38> end
| 39> 
| 40> 
| 41>                          ****END OF INPUT****
================================================================================

                       ****************************
                       * Single Point Calculation *
                       ****************************

---------------------------------
CARTESIAN COORDINATES (ANGSTROEM)
---------------------------------
  Re     0.721260    0.301703   -0.012347
  C      1.851141    0.452958   -1.678261
  C      1.971728    0.634914    1.425372
  C      0.763580    2.214165   -0.101283
  Br     1.710512   -2.064741    0.019177
  O      0.816608    3.358474   -0.166463
  O      2.493283    0.513036   -2.612271
  O      2.652573    0.808904    2.320449
  C     -1.780395   -0.133590    1.665167
  C     -0.470905   -0.371203    1.638632
  C     -2.365069    0.652857    0.526821
  C     -3.493010   -0.159458   -0.075600
  O     -3.300943   -1.161632   -0.733339
  O     -4.693453    0.297769    0.229376
  C     -1.280010    0.876972   -0.512116
  O     -0.953000   -0.240509   -1.297416
  H     -1.566319   -0.977006   -1.049921
  C     -5.797043   -0.483161   -0.244906
  H     -6.688437    0.024549    0.111717
  H     -5.787691   -0.527184   -1.333247
  H     -5.742358   -1.494851    0.155119
  H     -0.050439   -0.962173    2.449658
  H     -2.758296    1.619346    0.851818
  H     -2.454065   -0.501260    2.435709
  H     -1.435420    1.741704   -1.151672

----------------------------
CARTESIAN COORDINATES (A.U.)
----------------------------
  NO LB      ZA    FRAG     MASS         X           Y           Z
   0 Re   15.0000*   0   186.207    1.362984    0.570136   -0.023332
   1 C     6.0000    0    12.011    3.498150    0.855967   -3.171454
   2 C     6.0000    0    12.011    3.726026    1.199814    2.693563
   3 C     6.0000    0    12.011    1.442957    4.184165   -0.191397
   4 Br   35.0000    0    79.900    3.232399   -3.901795    0.036239
   5 O     8.0000    0    15.999    1.543165    6.346596   -0.314569
   6 O     8.0000    0    15.999    4.711622    0.969498   -4.936477
   7 O     8.0000    0    15.999    5.012637    1.528607    4.385013
   8 C     6.0000    0    12.011   -3.364459   -0.252449    3.146710
   9 C     6.0000    0    12.011   -0.889881   -0.701472    3.096566
  10 C     6.0000    0    12.011   -4.469333    1.233721    0.995547
  11 C     6.0000    0    12.011   -6.600832   -0.301332   -0.142863
  12 O     8.0000    0    15.999   -6.237878   -2.195166   -1.385810
  13 O     8.0000    0    15.999   -8.869341    0.562702    0.433458
  14 C     6.0000    0    12.011   -2.418868    1.657237   -0.967759
  15 O     8.0000    0    15.999   -1.800909   -0.454496   -2.451761
  16 H     1.0000    0     1.008   -2.959914   -1.846274   -1.984063
  17 C     6.0000    0    12.011  -10.954824   -0.913042   -0.462805
  18 H     1.0000    0     1.008  -12.639314    0.046391    0.211115
  19 H     1.0000    0     1.008  -10.937151   -0.996233   -2.519472
  20 H     1.0000    0     1.008  -10.851484   -2.824859    0.293132
  21 H     1.0000    0     1.008   -0.095316   -1.818243    4.629183
  22 H     1.0000    0     1.008   -5.212424    3.060120    1.609703
  23 H     1.0000    0     1.008   -4.637511   -0.947244    4.602823
  24 H     1.0000    0     1.008   -2.712551    3.291344   -2.176345
* core charge reduced due to ECP

--------------------------------
INTERNAL COORDINATES (ANGSTROEM)
--------------------------------
 Re     0   0   0     0.000000000000     0.00000000     0.00000000
 C      1   0   0     2.018608085930     0.00000000     0.00000000
 C      1   2   0     1.934356666312   103.80654022     0.00000000
 C      1   2   3     1.914996474133    82.78873306    79.12564351
 Br     1   2   3     2.565086838143    82.14904570   277.89406674
 O      4   1   2     1.147389859056   178.49391541   327.51252020
 O      2   1   3     1.135046428279   178.68609495    85.33200211
 O      3   1   2     1.137974195689   176.12648842   189.59702686
 C      1   2   3     3.043322354774   157.77851098   179.94088692
 C      9   1   2     1.331137898226    37.42944185   142.11684556
 C      9   1   2     1.502056651995    80.05745056   320.38587205
 C     11   9   1     1.514931556192   108.08544047   123.96679349
 O     12  11   9     1.214027615372   122.70308766   288.28179310
 O     12  11   9     1.320276594640   113.54196190   105.72491438
 C     11   9   1     1.518871507625   108.51615153     4.92357813
 O     15  11   9     1.404419956943   115.55716524    75.06443266
 H     16  15  11     0.989869588277   107.93539870     3.93651329
 C     14  12  11     1.432726759897   115.79356577   183.80260110
 H     18  14  12     1.086062922424   105.58700129   178.86376631
 H     18  14  12     1.089271140127   110.25308027   298.51319643
 H     18  14  12     1.089278250012   110.24300066    59.16322117
 H     10   9   1     1.088025905359   117.53306695   183.42949817
 H     11   9   1     1.092863903082   112.19249287   244.09671328
 H      9   1   2     1.087541940140   161.45769375   131.12866136
 H     15  11   9     1.086713199082   114.69643541   204.22702384

---------------------------
INTERNAL COORDINATES (A.U.)
---------------------------
 Re     0   0   0     0.000000000000     0.00000000     0.00000000
 C      1   0   0     3.814616454127     0.00000000     0.00000000
 C      1   2   0     3.655404344655   103.80654022     0.00000000
 C      1   2   3     3.618818883535    82.78873306    79.12564351
 Br     1   2   3     4.847311633817    82.14904570   277.89406674
 O      4   1   2     2.168252602455   178.49391541   327.51252020
 O      2   1   3     2.144926898732   178.68609495    85.33200211
 O      3   1   2     2.150459577321   176.12648842   189.59702686
 C      1   2   3     5.751045787764   157.77851098   179.94088692
 C      9   1   2     2.515486074131    37.42944185   142.11684556
 C      9   1   2     2.838475709904    80.05745056   320.38587205
 C     11   9   1     2.862805752838   108.08544047   123.96679349
 O     12  11   9     2.294179712071   122.70308766   288.28179310
 O     12  11   9     2.494961184896   113.54196190   105.72491438
 C     11   9   1     2.870251182027   108.51615153     4.92357813
 O     15  11   9     2.653969095637   115.55716524    75.06443266
 H     16  15  11     1.870582430140   107.93539870     3.93651329
 C     14  12  11     2.707461200945   115.79356577   183.80260110
 H     18  14  12     2.052361487588   105.58700129   178.86376631
 H     18  14  12     2.058424140425   110.25308027   298.51319643
 H     18  14  12     2.058437576160   110.24300066    59.16322117
 H     10   9   1     2.056070987740   117.53306695   183.42949817
 H     11   9   1     2.065213478473   112.19249287   244.09671328
 H      9   1   2     2.055156426018   161.45769375   131.12866136
 H     15  11   9     2.053590332383   114.69643541   204.22702384

---------------------
BASIS SET INFORMATION
---------------------
There are 5 groups of distinct atoms

 Group   1 Type Re  : 8s8p6d2f1g contracted to 6s5p3d2f1g pattern {311111/41111/411/11/1}
 Group   2 Type C   : 12s6p3d1f contracted to 6s3p3d1f pattern {621111/411/111/1}
 Group   3 Type Br  : 18s14p9d1f contracted to 7s6p5d1f pattern {8421111/641111/51111/1}
 Group   4 Type O   : 12s7p3d1f contracted to 6s4p3d1f pattern {621111/4111/111/1}
 Group   5 Type H   : 5s3p1d contracted to 3s3p1d pattern {311/111/1}

Atom   0Re   basis set group =>   1
Atom   1C    basis set group =>   2
Atom   2C    basis set group =>   2
Atom   3C    basis set group =>   2
Atom   4Br   basis set group =>   3
Atom   5O    basis set group =>   4
Atom   6O    basis set group =>   4
Atom   7O    basis set group =>   4
Atom   8C    basis set group =>   2
Atom   9C    basis set group =>   2
Atom  10C    basis set group =>   2
Atom  11C    basis set group =>   2
Atom  12O    basis set group =>   4
Atom  13O    basis set group =>   4
Atom  14C    basis set group =>   2
Atom  15O    basis set group =>   4
Atom  16H    basis set group =>   5
Atom  17C    basis set group =>   2
Atom  18H    basis set group =>   5
Atom  19H    basis set group =>   5
Atom  20H    basis set group =>   5
Atom  21H    basis set group =>   5
Atom  22H    basis set group =>   5
Atom  23H    basis set group =>   5
Atom  24H    basis set group =>   5
---------------------------------
AUXILIARY/C BASIS SET INFORMATION
---------------------------------
There are 5 groups of distinct atoms

 Group   1 Type Re  : 9s9p8d5f4g3h1i contracted to 9s9p8d5f4g3h1i pattern {111111111/111111111/11111111/11111/1111/111/1}
 Group   2 Type C   : 9s7p6d4f1g contracted to 9s7p5d4f1g pattern {111111111/1111111/21111/1111/1}
 Group   3 Type Br  : 11s10p9d7f4g1h contracted to 11s10p9d6f4g1h pattern {11111111111/1111111111/111111111/211111/1111/1}
 Group   4 Type O   : 9s7p6d4f1g contracted to 9s7p5d4f1g pattern {111111111/1111111/21111/1111/1}
 Group   5 Type H   : 5s4p3d1f contracted to 5s4p3d1f pattern {11111/1111/111/1}

Atom   0Re   basis set group =>   1
Atom   1C    basis set group =>   2
Atom   2C    basis set group =>   2
Atom   3C    basis set group =>   2
Atom   4Br   basis set group =>   3
Atom   5O    basis set group =>   4
Atom   6O    basis set group =>   4
Atom   7O    basis set group =>   4
Atom   8C    basis set group =>   2
Atom   9C    basis set group =>   2
Atom  10C    basis set group =>   2
Atom  11C    basis set group =>   2
Atom  12O    basis set group =>   4
Atom  13O    basis set group =>   4
Atom  14C    basis set group =>   2
Atom  15O    basis set group =>   4
Atom  16H    basis set group =>   5
Atom  17C    basis set group =>   2
Atom  18H    basis set group =>   5
Atom  19H    basis set group =>   5
Atom  20H    basis set group =>   5
Atom  21H    basis set group =>   5
Atom  22H    basis set group =>   5
Atom  23H    basis set group =>   5
Atom  24H    basis set group =>   5
----------------------------------
AUXILIARY/JK BASIS SET INFORMATION
----------------------------------
There are 5 groups of distinct atoms

 Group   1 Type Re  : 13s12p11d9f5g3h2i contracted to 11s9p9d7f4g3h2i pattern {31111111111/411111111/311111111/3111111/2111/111/11}
 Group   2 Type C   : 14s10p6d2f1g contracted to 10s8p5d1f1g pattern {5111111111/31111111/21111/2/1}
 Group   3 Type Br  : 20s14p13d10f7g3h contracted to 17s13p12d9f6g3h pattern {41111111111111111/2111111111111/211111111111/211111111/211111/111}
 Group   4 Type O   : 14s10p6d2f1g contracted to 10s8p4d2f1g pattern {5111111111/31111111/3111/11/1}
 Group   5 Type H   : 4s2p2d contracted to 2s2p2d pattern {31/11/11}

Atom   0Re   basis set group =>   1
Atom   1C    basis set group =>   2
Atom   2C    basis set group =>   2
Atom   3C    basis set group =>   2
Atom   4Br   basis set group =>   3
Atom   5O    basis set group =>   4
Atom   6O    basis set group =>   4
Atom   7O    basis set group =>   4
Atom   8C    basis set group =>   2
Atom   9C    basis set group =>   2
Atom  10C    basis set group =>   2
Atom  11C    basis set group =>   2
Atom  12O    basis set group =>   4
Atom  13O    basis set group =>   4
Atom  14C    basis set group =>   2
Atom  15O    basis set group =>   4
Atom  16H    basis set group =>   5
Atom  17C    basis set group =>   2
Atom  18H    basis set group =>   5
Atom  19H    basis set group =>   5
Atom  20H    basis set group =>   5
Atom  21H    basis set group =>   5
Atom  22H    basis set group =>   5
Atom  23H    basis set group =>   5
Atom  24H    basis set group =>   5
-------------------------
ECP PARAMETER INFORMATION
-------------------------

 Group 1, Type Re ECP Def2-ECP (replacing 60 core electrons, lmax=3)

Atom   0Re   ECP group =>   1



           ************************************************************
           *        Program running with 24 parallel MPI-processes    *
           *              working on a common directory               *
           ************************************************************
------------------------------------------------------------------------------
                           ORCA GTO INTEGRAL CALCULATION
                           -- RI-GTO INTEGRALS CHOSEN --
------------------------------------------------------------------------------

                         BASIS SET STATISTICS AND STARTUP INFO

Gaussian basis set:
 # of primitive gaussian shells          ...  475
 # of primitive gaussian functions       ... 1147
 # of contracted shells                  ...  293
 # of contracted basis functions         ...  825
 Highest angular momentum                ...    4
 Maximum contraction depth               ...    8
Auxiliary gaussian basis set:
 # of primitive gaussian shells          ...  681
 # of primitive gaussian functions       ... 2179
 # of contracted shells                  ...  528
 # of contracted aux-basis functions     ... 1774
 Highest angular momentum                ...    6
 Maximum contraction depth               ...    5
Ratio of auxiliary to basis functions    ...  2.15
Integral package used                  ... LIBINT
 One Electron integrals                  
   ECP integrals                         ... done
 Ordering auxiliary basis shells         ... done
 Integral threshhold             Thresh  ...  1.000e-10
 Primitive cut-off               TCut    ...  1.000e-11
 Pre-screening matrix                    ... done
 Shell pair data                         ... 
 Ordering of the shell pairs             ... done (   0.006 sec) 35291 of 43071 pairs
 Determination of significant pairs      ... done (   0.000 sec)
 Creation of shell pair data             ... done (   0.003 sec)
 Storage of shell pair data              ... done (   0.017 sec)
 Shell pair data done in (   0.027 sec)
 Computing two index integrals           ... done
 Cholesky decomposition of the V-matrix  ... done


Timings:
 Total evaluation time                   ...   3.489 sec (  0.058 min)
 One electron matrix time                ...   2.676 sec (  0.045 min) = 76.7%
 Schwartz matrix evaluation time         ...   0.448 sec (  0.007 min) = 12.8%
 Two index repulsion integral time       ...   0.180 sec (  0.003 min) =  5.2%
 Cholesky decomposition of V             ...   0.131 sec (  0.002 min) =  3.8%
 Three index repulsion integral time     ...   0.000 sec (  0.000 min) =  0.0%



           ************************************************************
           *        Program running with 24 parallel MPI-processes    *
           *              working on a common directory               *
           ************************************************************
-------------------------------------------------------------------------------
                                 ORCA SCF
-------------------------------------------------------------------------------

------------
SCF SETTINGS
------------
Hamiltonian:
 Density Functional     Method          .... DFT(GTOs)
 Exchange Functional    Exchange        .... B88
   X-Alpha parameter    XAlpha          ....  0.666667
   Becke's b parameter  XBeta           ....  0.004200
 Correlation Functional Correlation     .... LYP
 LDA part of GGA corr.  LDAOpt          .... VWN-5
 Gradients option       PostSCFGGA      .... off
 Hybrid DFT is turned on
   Fraction HF Exchange ScalHFX         ....  0.710000
   Scaling of DF-GGA-X  ScalDFX         ....  0.290000
   Scaling of DF-GGA-C  ScalDFC         ....  0.540000
   Scaling of DF-LDA-C  ScalLDAC        ....  0.540000
   Perturbative correction              ....  1.000000
   Density functional embedding theory  .... OFF
 RI-approximation to the Coulomb term is turned on
   Number of auxiliary basis functions  .... 1774
   RI-JK (J+K treated both via RI)      .... on


General Settings:
 Integral files         IntName         .... TMB20_I1
 Hartree-Fock type      HFTyp           .... RHF
 Total Charge           Charge          ....    0
 Multiplicity           Mult            ....    1
 Number of Electrons    NEL             ....  160
 Basis Dimension        Dim             ....  825
 Nuclear Repulsion      ENuc            ....   1785.3687109308 Eh

Convergence Acceleration:
 DIIS                   CNVDIIS         .... on
   Start iteration      DIISMaxIt       ....    12
   Startup error        DIISStart       ....  0.200000
   # of expansion vecs  DIISMaxEq       ....     5
   Bias factor          DIISBfac        ....   1.050
   Max. coefficient     DIISMaxC        ....  10.000
 Newton-Raphson         CNVNR           .... off
 SOSCF                  CNVSOSCF        .... off
 Level Shifting         CNVShift        .... on
   Level shift para.    LevelShift      ....    0.2500
   Turn off err/grad.   ShiftErr        ....    0.0010
 Zerner damping         CNVZerner       .... off
 Static damping         CNVDamp         .... on
   Fraction old density DampFac         ....    0.7000
   Max. Damping (<1)    DampMax         ....    0.9800
   Min. Damping (>=0)   DampMin         ....    0.0000
   Turn off err/grad.   DampErr         ....    0.1000
 Fernandez-Rico         CNVRico         .... off

SCF Procedure:
 Maximum # iterations   MaxIter         ....   125
 SCF integral mode      SCFMode         .... Direct
   Integral package                     .... LIBINT
 Reset frequency        DirectResetFreq ....    20
 Integral Threshold     Thresh          ....  1.000e-10 Eh
 Primitive CutOff       TCut            ....  1.000e-11 Eh

Convergence Tolerance:
 Convergence Check Mode ConvCheckMode   .... Total+1el-Energy
 Convergence forced     ConvForced      .... 0
 Energy Change          TolE            ....  1.000e-06 Eh
 1-El. energy change                    ....  1.000e-03 Eh
 DIIS Error             TolErr          ....  1.000e-06


Diagonalization of the overlap matrix:
Smallest eigenvalue                        ... 7.418e-07
Time for diagonalization                   ...    0.132 sec
Threshold for overlap eigenvalues          ... 1.000e-08
Number of eigenvalues below threshold      ... 0
Time for construction of square roots      ...    0.091 sec
Total time needed                          ...    0.226 sec

-------------------
DFT GRID GENERATION
-------------------

General Integration Accuracy     IntAcc      ...  4.670
Radial Grid Type                 RadialGrid  ... Gauss-Chebyshev
Angular Grid (max. acc.)         AngularGrid ... Lebedev-302
Angular grid pruning method      GridPruning ... 3 (G Style)
Weight generation scheme         WeightScheme... Becke
Basis function cutoff            BFCut       ...    1.0000e-10
Integration weight cutoff        WCut        ...    1.0000e-14
Grids for H and He will be reduced by one unit

# of grid points (after initial pruning)     ... 141600 (   0.0 sec)
# of grid points (after weights+screening)   ... 127291 (   0.1 sec)
nearest neighbour list constructed           ...    0.0 sec
Grid point re-assignment to atoms done       ...    0.0 sec
Grid point division into batches done        ...    0.5 sec
Reduced shell lists constructed in    1.0 sec

Total number of grid points                  ...   127291
Total number of batches                      ...     2003
Average number of points per batch           ...       63
Average number of grid points per atom       ...     5092
Average number of shells per batch           ...   189.67 (64.73%)
Average number of basis functions per batch  ...   553.22 (67.06%)
Average number of large shells per batch     ...   147.91 (77.98%)
Average number of large basis fcns per batch ...   431.65 (78.02%)
Average number of aux-shells per batch       ...   189.67 (35.92%)
Average number of aux functions per batch    ...   553.22 (31.19%)
Maximum spatial batch extension              ...   1.91,  1.88,  1.64 au
Average spatial batch extension              ...   0.04,  0.04,  0.04 au

Time for grid setup =    1.098 sec

------------------------------
INITIAL GUESS: MODEL POTENTIAL
------------------------------
Loading Hartree-Fock densities                     ... done
  calling /sw/apps/orca/orca_4_2_0_linux_x86-64_openmpi314/orca TMB20_I1_atom75.inp > TMB20_I1_atom75.out in order to generate an atomic fitting density for atom 0 (Re with ECP) on-the-fly... 
    atom 0 (Re), assumed electronic state with S=6: 1s2 2s2 2p6 3s2 3p6 4s2 3d10 4p6 5s2 4d10 5p6 6s2 4f14 5d5           ... done
Calculating cut-offs                               ... done
Setting up the integral package                    ... done
Initializing the effective Hamiltonian             ... done
Starting the Coulomb interaction                   ... done (   0.1 sec)
Reading the grid                                   ... done
Mapping shells                                     ... done
Starting the XC term evaluation                    ... done (   0.4 sec)
  promolecular density results
     # of electrons  =    219.998605157
     EX              =   -521.839138856
     EC              =     -1.226084237
     EX+EC           =   -523.065223093
Transforming the Hamiltonian                       ... done (   0.1 sec)
Diagonalizing the Hamiltonian                      ... done (   0.1 sec)
Back transforming the eigenvectors                 ... done (   0.0 sec)
Now organizing SCF variables                       ... done
                      ------------------
                      INITIAL GUESS DONE (   3.2 sec)
                      ------------------
--------------
SCF ITERATIONS
--------------
ITER       Energy         Delta-E        Max-DP      RMS-DP      [F,P]     Damp
  0  -3447.7299168413   0.000000000000 0.53025680  0.00243850  0.3449538 0.7000
  1  -3447.5373125768   0.192604264518 0.38440702  0.00197450  0.2672587 0.7000
                               ***Turning on DIIS***
  2  -3447.6756739961  -0.138361419298 0.21153729  0.00146220  0.1939609 0.7000
  3  -3447.9703672882  -0.294693292131 0.22435403  0.00114322  0.1337018 0.7000
  4  -3448.2402518498  -0.269884561605 0.51749467  0.00256613  0.0874515 0.0000
  5  -3448.4193187915  -0.179066941714 0.09054928  0.00040676  0.0443340 0.0000
  6  -3448.4319813599  -0.012662568423 0.05050883  0.00019157  0.0057629 0.0000
  7  -3448.4324775838  -0.000496223832 0.01154941  0.00006274  0.0050154 0.0000
  8  -3448.4326534597  -0.000175875936 0.01990367  0.00009244  0.0032325 0.0000
  9  -3448.4327469779  -0.000093518143 0.01416467  0.00005222  0.0009667 0.0000
 10  -3448.4327601730  -0.000013195147 0.01394040  0.00004251  0.0008244 0.0000
 11  -3448.4327642045  -0.000004031527 0.01143519  0.00005682  0.0003341 0.0000
 12  -3448.4327655190  -0.000001314515 0.00840465  0.00003336  0.0001348 0.0000
                 **** Energy Check signals convergence ****

               *****************************************************
               *                     SUCCESS                       *
               *           SCF CONVERGED AFTER  13 CYCLES          *
               *****************************************************


----------------
TOTAL SCF ENERGY
----------------

Total Energy       :        -3448.43276577 Eh          -93836.62612 eV

Components:
Nuclear Repulsion  :         1785.36871093 Eh           48582.35250 eV
Electronic Energy  :        -5233.80147670 Eh         -142418.97862 eV
One Electron Energy:        -8361.52068413 Eh         -227528.54514 eV
Two Electron Energy:         3127.71920743 Eh           85109.56652 eV

Virial components:
Potential Energy   :        -6841.83522127 Eh         -186175.80137 eV
Kinetic Energy     :         3393.40245550 Eh           92339.17525 eV
Virial Ratio       :            2.01621685


DFT components:
N(Alpha)           :       80.000050214112 electrons
N(Beta)            :       80.000050214112 electrons
N(Total)           :      160.000100428225 electrons
E(X)               :      -57.119688810252 Eh       
E(C)               :       -3.285277230659 Eh       
E(XC)              :      -60.404966040912 Eh       
DFET-embed. en.    :        0.000000000000 Eh       

---------------
SCF CONVERGENCE
---------------

  Last Energy change         ...   -2.4965e-07  Tolerance :   1.0000e-06
  Last MAX-Density change    ...    2.1152e-02  Tolerance :   1.0000e-05
  Last RMS-Density change    ...    4.9657e-05  Tolerance :   1.0000e-06
  Last DIIS Error            ...    6.5196e-05  Tolerance :   1.0000e-06

             **** THE GBW FILE WAS UPDATED (TMB20_I1.gbw) ****
             **** DENSITY FILE WAS UPDATED (TMB20_I1.scfp) ****
             **** ENERGY FILE WAS UPDATED (TMB20_I1.en.tmp) ****
             **** THE GBW FILE WAS UPDATED (TMB20_I1.gbw) ****
             **** DENSITY FILE WAS UPDATED (TMB20_I1.scfp) ****
----------------
ORBITAL ENERGIES
----------------

  NO   OCC          E(Eh)            E(eV) 
   0   2.0000    -487.405485    -13262.9775 
   1   2.0000     -64.157417     -1745.8121 
   2   2.0000     -57.677872     -1569.4947 
   3   2.0000     -57.676920     -1569.4688 
   4   2.0000     -57.676714     -1569.4632 
   5   2.0000     -20.162704      -548.6551 
   6   2.0000     -20.154863      -548.4417 
   7   2.0000     -20.144124      -548.1495 
   8   2.0000     -20.134343      -547.8833 
   9   2.0000     -20.131907      -547.8170 
  10   2.0000     -20.073284      -546.2218 
  11   2.0000     -11.034296      -300.2585 
  12   2.0000     -11.018726      -299.8348 
  13   2.0000     -11.018156      -299.8193 
  14   2.0000     -11.016715      -299.7800 
  15   2.0000     -10.967368      -298.4373 
  16   2.0000     -10.933272      -297.5095 
  17   2.0000     -10.904630      -296.7301 
  18   2.0000     -10.857696      -295.4529 
  19   2.0000     -10.840395      -294.9821 
  20   2.0000      -9.377418      -255.1725 
  21   2.0000      -7.065349      -192.2579 
  22   2.0000      -7.061455      -192.1519 
  23   2.0000      -7.060723      -192.1320 
  24   2.0000      -3.563579       -96.9699 
  25   2.0000      -2.941776       -80.0498 
  26   2.0000      -2.940510       -80.0153 
  27   2.0000      -2.939781       -79.9955 
  28   2.0000      -2.935728       -79.8852 
  29   2.0000      -2.935699       -79.8844 
  30   2.0000      -2.025231       -55.1093 
  31   2.0000      -2.021061       -54.9959 
  32   2.0000      -2.011850       -54.7452 
  33   2.0000      -1.403791       -38.1991 
  34   2.0000      -1.396589       -38.0031 
  35   2.0000      -1.385968       -37.7141 
  36   2.0000      -1.383697       -37.6523 
  37   2.0000      -1.332890       -36.2698 
  38   2.0000      -1.280166       -34.8351 
  39   2.0000      -1.032358       -28.0919 
  40   2.0000      -0.932661       -25.3790 
  41   2.0000      -0.897758       -24.4292 
  42   2.0000      -0.876923       -23.8623 
  43   2.0000      -0.838167       -22.8077 
  44   2.0000      -0.767010       -20.8714 
  45   2.0000      -0.750347       -20.4180 
  46   2.0000      -0.744490       -20.2586 
  47   2.0000      -0.736705       -20.0468 
  48   2.0000      -0.713211       -19.4075 
  49   2.0000      -0.680478       -18.5167 
  50   2.0000      -0.669736       -18.2244 
  51   2.0000      -0.665200       -18.1010 
  52   2.0000      -0.643920       -17.5220 
  53   2.0000      -0.642555       -17.4848 
  54   2.0000      -0.634100       -17.2547 
  55   2.0000      -0.625709       -17.0264 
  56   2.0000      -0.609123       -16.5751 
  57   2.0000      -0.608221       -16.5505 
  58   2.0000      -0.604313       -16.4442 
  59   2.0000      -0.600393       -16.3375 
  60   2.0000      -0.596458       -16.2305 
  61   2.0000      -0.582771       -15.8580 
  62   2.0000      -0.578534       -15.7427 
  63   2.0000      -0.572268       -15.5722 
  64   2.0000      -0.556755       -15.1501 
  65   2.0000      -0.541828       -14.7439 
  66   2.0000      -0.534720       -14.5505 
  67   2.0000      -0.507223       -13.8023 
  68   2.0000      -0.490346       -13.3430 
  69   2.0000      -0.482254       -13.1228 
  70   2.0000      -0.448653       -12.2085 
  71   2.0000      -0.442846       -12.0505 
  72   2.0000      -0.411182       -11.1888 
  73   2.0000      -0.395656       -10.7663 
  74   2.0000      -0.384655       -10.4670 
  75   2.0000      -0.367515       -10.0006 
  76   2.0000      -0.352756        -9.5990 
  77   2.0000      -0.332221        -9.0402 
  78   2.0000      -0.318047        -8.6545 
  79   2.0000      -0.302039        -8.2189 
  80   0.0000      -0.012675        -0.3449 
  81   0.0000       0.023095         0.6284 
  82   0.0000       0.025950         0.7061 
  83   0.0000       0.036312         0.9881 
  84   0.0000       0.043465         1.1827 
  85   0.0000       0.045903         1.2491 
  86   0.0000       0.054227         1.4756 
  87   0.0000       0.060532         1.6472 
  88   0.0000       0.064941         1.7671 
  89   0.0000       0.066164         1.8004 
  90   0.0000       0.067556         1.8383 
  91   0.0000       0.071712         1.9514 
  92   0.0000       0.072649         1.9769 
  93   0.0000       0.075596         2.0571 
  94   0.0000       0.080715         2.1964 
  95   0.0000       0.083665         2.2766 
  96   0.0000       0.087838         2.3902 
  97   0.0000       0.091898         2.5007 
  98   0.0000       0.093165         2.5352 
  99   0.0000       0.098183         2.6717 
 100   0.0000       0.101576         2.7640 
 101   0.0000       0.104102         2.8328 
 102   0.0000       0.106081         2.8866 
 103   0.0000       0.111505         3.0342 
 104   0.0000       0.113677         3.0933 
 105   0.0000       0.121421         3.3040 
 106   0.0000       0.124095         3.3768 
 107   0.0000       0.127193         3.4611 
 108   0.0000       0.128691         3.5019 
 109   0.0000       0.132285         3.5997 
 110   0.0000       0.137626         3.7450 
 111   0.0000       0.137861         3.7514 
 112   0.0000       0.146147         3.9769 
 113   0.0000       0.153186         4.1684 
 114   0.0000       0.155294         4.2258 
 115   0.0000       0.159143         4.3305 
 116   0.0000       0.163154         4.4397 
 117   0.0000       0.166247         4.5238 
 118   0.0000       0.167712         4.5637 
 119   0.0000       0.178851         4.8668 
 120   0.0000       0.187271         5.0959 
 121   0.0000       0.187746         5.1088 
 122   0.0000       0.191325         5.2062 
 123   0.0000       0.196297         5.3415 
 124   0.0000       0.198106         5.3907 
 125   0.0000       0.202343         5.5060 
 126   0.0000       0.210186         5.7194 
 127   0.0000       0.211929         5.7669 
 128   0.0000       0.213820         5.8183 
 129   0.0000       0.224548         6.1103 
 130   0.0000       0.226381         6.1601 
 131   0.0000       0.231063         6.2875 
 132   0.0000       0.239453         6.5158 
 133   0.0000       0.240836         6.5535 
 134   0.0000       0.243069         6.6142 
 135   0.0000       0.249509         6.7895 
 136   0.0000       0.255111         6.9419 
 137   0.0000       0.257262         7.0004 
 138   0.0000       0.258252         7.0274 
 139   0.0000       0.266184         7.2432 
 140   0.0000       0.268945         7.3184 
 141   0.0000       0.273726         7.4485 
 142   0.0000       0.276772         7.5314 
 143   0.0000       0.278832         7.5874 
 144   0.0000       0.280862         7.6426 
 145   0.0000       0.284901         7.7525 
 146   0.0000       0.288422         7.8484 
 147   0.0000       0.289362         7.8739 
 148   0.0000       0.292666         7.9638 
 149   0.0000       0.296884         8.0786 
 150   0.0000       0.298453         8.1213 
 151   0.0000       0.302390         8.2284 
 152   0.0000       0.307122         8.3572 
 153   0.0000       0.313901         8.5417 
 154   0.0000       0.319033         8.6813 
 155   0.0000       0.320159         8.7120 
 156   0.0000       0.323187         8.7944 
 157   0.0000       0.327938         8.9236 
 158   0.0000       0.333494         9.0748 
 159   0.0000       0.337405         9.1813 
 160   0.0000       0.339323         9.2335 
 161   0.0000       0.343479         9.3465 
 162   0.0000       0.346666         9.4333 
 163   0.0000       0.349902         9.5213 
 164   0.0000       0.352569         9.5939 
 165   0.0000       0.353967         9.6319 
 166   0.0000       0.360556         9.8112 
 167   0.0000       0.363065         9.8795 
 168   0.0000       0.365047         9.9334 
 169   0.0000       0.370118        10.0714 
 170   0.0000       0.370645        10.0858 
 171   0.0000       0.374179        10.1819 
 172   0.0000       0.380569        10.3558 
 173   0.0000       0.383731        10.4418 
 174   0.0000       0.386839        10.5264 
 175   0.0000       0.392519        10.6810 
 176   0.0000       0.393448        10.7063 
 177   0.0000       0.395721        10.7681 
 178   0.0000       0.402709        10.9583 
 179   0.0000       0.407648        11.0927 
 180   0.0000       0.409816        11.1517 
 181   0.0000       0.417135        11.3508 
 182   0.0000       0.419177        11.4064 
 183   0.0000       0.423377        11.5207 
 184   0.0000       0.426135        11.5957 
 185   0.0000       0.427436        11.6311 
 186   0.0000       0.430871        11.7246 
 187   0.0000       0.434227        11.8159 
 188   0.0000       0.438330        11.9276 
 189   0.0000       0.443271        12.0620 
 190   0.0000       0.448755        12.2113 
 191   0.0000       0.453144        12.3307 
 192   0.0000       0.457784        12.4569 
 193   0.0000       0.463188        12.6040 
 194   0.0000       0.469391        12.7728 
 195   0.0000       0.471271        12.8239 
 196   0.0000       0.472795        12.8654 
 197   0.0000       0.476859        12.9760 
 198   0.0000       0.486833        13.2474 
 199   0.0000       0.490601        13.3499 
 200   0.0000       0.493005        13.4153 
 201   0.0000       0.497473        13.5369 
 202   0.0000       0.498607        13.5678 
 203   0.0000       0.503083        13.6896 
 204   0.0000       0.511015        13.9054 
 205   0.0000       0.513141        13.9633 
 206   0.0000       0.517735        14.0883 
 207   0.0000       0.528361        14.3774 
 208   0.0000       0.529787        14.4162 
 209   0.0000       0.531801        14.4710 
 210   0.0000       0.539081        14.6691 
 211   0.0000       0.539444        14.6790 
 212   0.0000       0.546975        14.8840 
 213   0.0000       0.547987        14.9115 
 214   0.0000       0.555633        15.1195 
 215   0.0000       0.560914        15.2633 
 216   0.0000       0.565585        15.3903 
 217   0.0000       0.569764        15.5041 
 218   0.0000       0.570323        15.5193 
 219   0.0000       0.576900        15.6982 
 220   0.0000       0.581940        15.8354 
 221   0.0000       0.588026        16.0010 
 222   0.0000       0.589830        16.0501 
 223   0.0000       0.595274        16.1982 
 224   0.0000       0.596162        16.2224 
 225   0.0000       0.601997        16.3812 
 226   0.0000       0.603083        16.4107 
 227   0.0000       0.607928        16.5426 
 228   0.0000       0.611059        16.6278 
 229   0.0000       0.616971        16.7886 
 230   0.0000       0.623087        16.9551 
 231   0.0000       0.626757        17.0549 
 232   0.0000       0.632109        17.2006 
 233   0.0000       0.637455        17.3460 
 234   0.0000       0.639230        17.3943 
 235   0.0000       0.645436        17.5632 
 236   0.0000       0.648496        17.6465 
 237   0.0000       0.655642        17.8409 
 238   0.0000       0.656038        17.8517 
 239   0.0000       0.662348        18.0234 
 240   0.0000       0.666264        18.1300 
 241   0.0000       0.671185        18.2639 
 242   0.0000       0.674097        18.3431 
 243   0.0000       0.675390        18.3783 
 244   0.0000       0.683554        18.6004 
 245   0.0000       0.684620        18.6295 
 246   0.0000       0.692799        18.8520 
 247   0.0000       0.694147        18.8887 
 248   0.0000       0.700173        19.0527 
 249   0.0000       0.702234        19.1088 
 250   0.0000       0.704746        19.1771 
 251   0.0000       0.711263        19.3544 
 252   0.0000       0.718761        19.5585 
 253   0.0000       0.721396        19.6302 
 254   0.0000       0.724406        19.7121 
 255   0.0000       0.728876        19.8337 
 256   0.0000       0.733848        19.9690 
 257   0.0000       0.736527        20.0419 
 258   0.0000       0.740815        20.1586 
 259   0.0000       0.743685        20.2367 
 260   0.0000       0.745001        20.2725 
 261   0.0000       0.752086        20.4653 
 262   0.0000       0.756453        20.5841 
 263   0.0000       0.762812        20.7572 
 264   0.0000       0.764362        20.7993 
 265   0.0000       0.773842        21.0573 
 266   0.0000       0.774532        21.0761 
 267   0.0000       0.784598        21.3500 
 268   0.0000       0.785489        21.3742 
 269   0.0000       0.788580        21.4584 
 270   0.0000       0.790394        21.5077 
 271   0.0000       0.795689        21.6518 
 272   0.0000       0.803814        21.8729 
 273   0.0000       0.808255        21.9937 
 274   0.0000       0.808546        22.0017 
 275   0.0000       0.811990        22.0954 
 276   0.0000       0.820577        22.3290 
 277   0.0000       0.826633        22.4938 
 278   0.0000       0.828909        22.5558 
 279   0.0000       0.835112        22.7245 
 280   0.0000       0.836836        22.7715 
 281   0.0000       0.839939        22.8559 
 282   0.0000       0.843241        22.9457 
 283   0.0000       0.847188        23.0532 
 284   0.0000       0.850113        23.1327 
 285   0.0000       0.852465        23.1967 
 286   0.0000       0.862353        23.4658 
 287   0.0000       0.868355        23.6291 
 288   0.0000       0.874735        23.8027 
 289   0.0000       0.875702        23.8291 
 290   0.0000       0.881747        23.9936 
 291   0.0000       0.882909        24.0252 
 292   0.0000       0.891039        24.2464 
 293   0.0000       0.894175        24.3318 
 294   0.0000       0.898736        24.4559 
 295   0.0000       0.906084        24.6558 
 296   0.0000       0.911801        24.8114 
 297   0.0000       0.915096        24.9010 
 298   0.0000       0.920848        25.0576 
 299   0.0000       0.930950        25.3324 
 300   0.0000       0.934223        25.4215 
 301   0.0000       0.943253        25.6672 
 302   0.0000       0.949950        25.8495 
 303   0.0000       0.952298        25.9133 
 304   0.0000       0.958343        26.0778 
 305   0.0000       0.961724        26.1698 
 306   0.0000       0.971945        26.4480 
 307   0.0000       0.975079        26.5333 
 308   0.0000       0.983457        26.7612 
 309   0.0000       0.986791        26.8519 
 310   0.0000       0.988907        26.9095 
 311   0.0000       0.998499        27.1705 
 312   0.0000       1.000403        27.2223 
 313   0.0000       1.007842        27.4248 
 314   0.0000       1.021326        27.7917 
 315   0.0000       1.029352        28.0101 
 316   0.0000       1.030137        28.0315 
 317   0.0000       1.041264        28.3342 
 318   0.0000       1.049151        28.5488 
 319   0.0000       1.059629        28.8340 
 320   0.0000       1.060674        28.8624 
 321   0.0000       1.071518        29.1575 
 322   0.0000       1.082610        29.4593 
 323   0.0000       1.091055        29.6891 
 324   0.0000       1.094685        29.7879 
 325   0.0000       1.101147        29.9637 
 326   0.0000       1.104241        30.0479 
 327   0.0000       1.112624        30.2760 
 328   0.0000       1.117215        30.4010 
 329   0.0000       1.125978        30.6394 
 330   0.0000       1.133871        30.8542 
 331   0.0000       1.140340        31.0302 
 332   0.0000       1.141511        31.0621 
 333   0.0000       1.151996        31.3474 
 334   0.0000       1.152840        31.3704 
 335   0.0000       1.156199        31.4618 
 336   0.0000       1.170842        31.8602 
 337   0.0000       1.174717        31.9657 
 338   0.0000       1.183647        32.2087 
 339   0.0000       1.188555        32.3422 
 340   0.0000       1.193242        32.4698 
 341   0.0000       1.197121        32.5753 
 342   0.0000       1.218618        33.1603 
 343   0.0000       1.224578        33.3225 
 344   0.0000       1.230482        33.4831 
 345   0.0000       1.247822        33.9550 
 346   0.0000       1.248647        33.9774 
 347   0.0000       1.259461        34.2717 
 348   0.0000       1.267965        34.5031 
 349   0.0000       1.276630        34.7389 
 350   0.0000       1.276998        34.7489 
 351   0.0000       1.289828        35.0980 
 352   0.0000       1.294666        35.2296 
 353   0.0000       1.298494        35.3338 
 354   0.0000       1.309167        35.6242 
 355   0.0000       1.314037        35.7568 
 356   0.0000       1.325523        36.0693 
 357   0.0000       1.330848        36.2142 
 358   0.0000       1.332540        36.2602 
 359   0.0000       1.350197        36.7407 
 360   0.0000       1.355792        36.8930 
 361   0.0000       1.368613        37.2418 
 362   0.0000       1.373584        37.3771 
 363   0.0000       1.378237        37.5037 
 364   0.0000       1.392457        37.8907 
 365   0.0000       1.393823        37.9279 
 366   0.0000       1.399198        38.0741 
 367   0.0000       1.407168        38.2910 
 368   0.0000       1.419884        38.6370 
 369   0.0000       1.422670        38.7128 
 370   0.0000       1.433593        39.0100 
 371   0.0000       1.437701        39.1218 
 372   0.0000       1.448736        39.4221 
 373   0.0000       1.454941        39.5910 
 374   0.0000       1.461853        39.7790 
 375   0.0000       1.470515        40.0148 
 376   0.0000       1.477622        40.2081 
 377   0.0000       1.492100        40.6021 
 378   0.0000       1.493029        40.6274 
 379   0.0000       1.503247        40.9054 
 380   0.0000       1.511562        41.1317 
 381   0.0000       1.520101        41.3640 
 382   0.0000       1.526153        41.5287 
 383   0.0000       1.529302        41.6144 
 384   0.0000       1.543235        41.9935 
 385   0.0000       1.555809        42.3357 
 386   0.0000       1.565655        42.6036 
 387   0.0000       1.576952        42.9111 
 388   0.0000       1.579862        42.9902 
 389   0.0000       1.596281        43.4370 
 390   0.0000       1.598692        43.5026 
 391   0.0000       1.608944        43.7816 
 392   0.0000       1.615076        43.9484 
 393   0.0000       1.628199        44.3055 
 394   0.0000       1.641422        44.6654 
 395   0.0000       1.646777        44.8111 
 396   0.0000       1.660336        45.1800 
 397   0.0000       1.668864        45.4121 
 398   0.0000       1.677133        45.6371 
 399   0.0000       1.691397        46.0253 
 400   0.0000       1.694934        46.1215 
 401   0.0000       1.704749        46.3886 
 402   0.0000       1.719136        46.7801 
 403   0.0000       1.721186        46.8359 
 404   0.0000       1.732752        47.1506 
 405   0.0000       1.747208        47.5439 
 406   0.0000       1.748871        47.5892 
 407   0.0000       1.757043        47.8116 
 408   0.0000       1.765530        48.0425 
 409   0.0000       1.770373        48.1743 
 410   0.0000       1.778936        48.4073 
 411   0.0000       1.784237        48.5516 
 412   0.0000       1.790357        48.7181 
 413   0.0000       1.806394        49.1545 
 414   0.0000       1.819410        49.5087 
 415   0.0000       1.834121        49.9090 
 416   0.0000       1.842272        50.1308 
 417   0.0000       1.862367        50.6776 
 418   0.0000       1.869513        50.8720 
 419   0.0000       1.882810        51.2339 
 420   0.0000       1.892318        51.4926 
 421   0.0000       1.898071        51.6491 
 422   0.0000       1.906979        51.8915 
 423   0.0000       1.922283        52.3080 
 424   0.0000       1.923853        52.3507 
 425   0.0000       1.932436        52.5842 
 426   0.0000       1.942115        52.8476 
 427   0.0000       1.949452        53.0473 
 428   0.0000       1.950135        53.0659 
 429   0.0000       1.957015        53.2531 
 430   0.0000       1.961475        53.3745 
 431   0.0000       1.968760        53.5727 
 432   0.0000       1.978229        53.8304 
 433   0.0000       1.988849        54.1193 
 434   0.0000       1.991266        54.1851 
 435   0.0000       1.997305        54.3494 
 436   0.0000       2.001597        54.4662 
 437   0.0000       2.005569        54.5743 
 438   0.0000       2.013339        54.7858 
 439   0.0000       2.021336        55.0033 
 440   0.0000       2.027028        55.1582 
 441   0.0000       2.037420        55.4410 
 442   0.0000       2.042928        55.5909 
 443   0.0000       2.058521        56.0152 
 444   0.0000       2.066374        56.2289 
 445   0.0000       2.073024        56.4099 
 446   0.0000       2.075971        56.4900 
 447   0.0000       2.078458        56.5577 
 448   0.0000       2.090965        56.8981 
 449   0.0000       2.102294        57.2063 
 450   0.0000       2.110123        57.4194 
 451   0.0000       2.117308        57.6149 
 452   0.0000       2.126287        57.8592 
 453   0.0000       2.152281        58.5666 
 454   0.0000       2.156993        58.6948 
 455   0.0000       2.178521        59.2806 
 456   0.0000       2.191244        59.6268 
 457   0.0000       2.199763        59.8586 
 458   0.0000       2.208254        60.0896 
 459   0.0000       2.235331        60.8265 
 460   0.0000       2.240777        60.9746 
 461   0.0000       2.243907        61.0598 
 462   0.0000       2.252055        61.2815 
 463   0.0000       2.276357        61.9428 
 464   0.0000       2.295827        62.4726 
 465   0.0000       2.302305        62.6489 
 466   0.0000       2.314169        62.9717 
 467   0.0000       2.321665        63.1757 
 468   0.0000       2.346876        63.8617 
 469   0.0000       2.356177        64.1148 
 470   0.0000       2.357495        64.1507 
 471   0.0000       2.372189        64.5505 
 472   0.0000       2.373965        64.5989 
 473   0.0000       2.390933        65.0606 
 474   0.0000       2.400192        65.3125 
 475   0.0000       2.419855        65.8476 
 476   0.0000       2.420303        65.8598 
 477   0.0000       2.434942        66.2581 
 478   0.0000       2.441646        66.4406 
 479   0.0000       2.470487        67.2254 
 480   0.0000       2.482025        67.5393 
 481   0.0000       2.493739        67.8581 
 482   0.0000       2.504124        68.1407 
 483   0.0000       2.515865        68.4602 
 484   0.0000       2.522428        68.6388 
 485   0.0000       2.533994        68.9535 
 486   0.0000       2.552394        69.4542 
 487   0.0000       2.562673        69.7339 
 488   0.0000       2.584653        70.3320 
 489   0.0000       2.588629        70.4402 
 490   0.0000       2.598224        70.7013 
 491   0.0000       2.610693        71.0406 
 492   0.0000       2.627936        71.5098 
 493   0.0000       2.641417        71.8766 
 494   0.0000       2.644809        71.9689 
 495   0.0000       2.666132        72.5491 
 496   0.0000       2.677360        72.8547 
 497   0.0000       2.684371        73.0455 
 498   0.0000       2.688255        73.1511 
 499   0.0000       2.700555        73.4858 
 500   0.0000       2.728128        74.2361 
 501   0.0000       2.755795        74.9890 
 502   0.0000       2.783186        75.7343 
 503   0.0000       2.793062        76.0031 
 504   0.0000       2.801033        76.2200 
 505   0.0000       2.807194        76.3876 
 506   0.0000       2.818437        76.6936 
 507   0.0000       2.835211        77.1500 
 508   0.0000       2.837610        77.2153 
 509   0.0000       2.864489        77.9467 
 510   0.0000       2.868464        78.0549 
 511   0.0000       2.881429        78.4077 
 512   0.0000       2.893536        78.7371 
 513   0.0000       2.908430        79.1424 
 514   0.0000       2.921623        79.5014 
 515   0.0000       2.926409        79.6316 
 516   0.0000       2.937264        79.9270 
 517   0.0000       2.943466        80.0958 
 518   0.0000       2.958433        80.5031 
 519   0.0000       2.968315        80.7719 
 520   0.0000       2.979128        81.0662 
 521   0.0000       2.984853        81.2220 
 522   0.0000       2.997184        81.5575 
 523   0.0000       3.014897        82.0395 
 524   0.0000       3.033576        82.5478 
 525   0.0000       3.039776        82.7165 
 526   0.0000       3.041191        82.7550 
 527   0.0000       3.059585        83.2555 
 528   0.0000       3.067349        83.4668 
 529   0.0000       3.090196        84.0885 
 530   0.0000       3.093600        84.1811 
 531   0.0000       3.093880        84.1887 
 532   0.0000       3.109393        84.6109 
 533   0.0000       3.117015        84.8183 
 534   0.0000       3.125050        85.0369 
 535   0.0000       3.128975        85.1437 
 536   0.0000       3.136685        85.3535 
 537   0.0000       3.154665        85.8428 
 538   0.0000       3.162058        86.0440 
 539   0.0000       3.176819        86.4456 
 540   0.0000       3.188943        86.7755 
 541   0.0000       3.193659        86.9039 
 542   0.0000       3.203064        87.1598 
 543   0.0000       3.207632        87.2841 
 544   0.0000       3.211918        87.4007 
 545   0.0000       3.220616        87.6374 
 546   0.0000       3.243688        88.2652 
 547   0.0000       3.257057        88.6290 
 548   0.0000       3.260391        88.7197 
 549   0.0000       3.271382        89.0188 
 550   0.0000       3.282043        89.3089 
 551   0.0000       3.289244        89.5049 
 552   0.0000       3.299904        89.7950 
 553   0.0000       3.304977        89.9330 
 554   0.0000       3.309176        90.0473 
 555   0.0000       3.314402        90.1895 
 556   0.0000       3.326569        90.5205 
 557   0.0000       3.327493        90.5457 
 558   0.0000       3.333672        90.7138 
 559   0.0000       3.341086        90.9156 
 560   0.0000       3.355190        91.2994 
 561   0.0000       3.359053        91.4045 
 562   0.0000       3.376392        91.8763 
 563   0.0000       3.390761        92.2673 
 564   0.0000       3.399273        92.4989 
 565   0.0000       3.409901        92.7881 
 566   0.0000       3.414429        92.9113 
 567   0.0000       3.419682        93.0543 
 568   0.0000       3.441466        93.6470 
 569   0.0000       3.448620        93.8417 
 570   0.0000       3.451855        93.9297 
 571   0.0000       3.464634        94.2775 
 572   0.0000       3.473235        94.5115 
 573   0.0000       3.479489        94.6817 
 574   0.0000       3.488954        94.9393 
 575   0.0000       3.499976        95.2392 
 576   0.0000       3.507333        95.4394 
 577   0.0000       3.521829        95.8338 
 578   0.0000       3.523124        95.8691 
 579   0.0000       3.538724        96.2936 
 580   0.0000       3.547364        96.5287 
 581   0.0000       3.549839        96.5960 
 582   0.0000       3.557854        96.8141 
 583   0.0000       3.563292        96.9621 
 584   0.0000       3.579211        97.3953 
 585   0.0000       3.584960        97.5517 
 586   0.0000       3.594732        97.8176 
 587   0.0000       3.607853        98.1747 
 588   0.0000       3.619614        98.4947 
 589   0.0000       3.626630        98.6856 
 590   0.0000       3.633239        98.8655 
 591   0.0000       3.633855        98.8822 
 592   0.0000       3.652680        99.3945 
 593   0.0000       3.655835        99.4803 
 594   0.0000       3.661287        99.6287 
 595   0.0000       3.668049        99.8127 
 596   0.0000       3.682316       100.2009 
 597   0.0000       3.686859       100.3245 
 598   0.0000       3.696365       100.5832 
 599   0.0000       3.718959       101.1980 
 600   0.0000       3.726601       101.4060 
 601   0.0000       3.727158       101.4211 
 602   0.0000       3.732588       101.5689 
 603   0.0000       3.747663       101.9791 
 604   0.0000       3.757766       102.2540 
 605   0.0000       3.763355       102.4061 
 606   0.0000       3.769089       102.5621 
 607   0.0000       3.773279       102.6761 
 608   0.0000       3.787721       103.0691 
 609   0.0000       3.795438       103.2791 
 610   0.0000       3.804582       103.5279 
 611   0.0000       3.815925       103.8366 
 612   0.0000       3.819245       103.9269 
 613   0.0000       3.826919       104.1358 
 614   0.0000       3.844364       104.6105 
 615   0.0000       3.853148       104.8495 
 616   0.0000       3.857158       104.9586 
 617   0.0000       3.869853       105.3041 
 618   0.0000       3.878647       105.5433 
 619   0.0000       3.886972       105.7699 
 620   0.0000       3.907669       106.3331 
 621   0.0000       3.915697       106.5515 
 622   0.0000       3.941181       107.2450 
 623   0.0000       3.968669       107.9930 
 624   0.0000       3.970607       108.0457 
 625   0.0000       3.981283       108.3362 
 626   0.0000       3.989921       108.5713 
 627   0.0000       4.004135       108.9581 
 628   0.0000       4.014068       109.2284 
 629   0.0000       4.023329       109.4803 
 630   0.0000       4.046482       110.1104 
 631   0.0000       4.069172       110.7278 
 632   0.0000       4.091401       111.3327 
 633   0.0000       4.095784       111.4519 
 634   0.0000       4.099772       111.5605 
 635   0.0000       4.114461       111.9602 
 636   0.0000       4.127471       112.3142 
 637   0.0000       4.132441       112.4494 
 638   0.0000       4.152027       112.9824 
 639   0.0000       4.161745       113.2468 
 640   0.0000       4.167015       113.3902 
 641   0.0000       4.196581       114.1948 
 642   0.0000       4.204473       114.4095 
 643   0.0000       4.218062       114.7793 
 644   0.0000       4.223936       114.9392 
 645   0.0000       4.251573       115.6912 
 646   0.0000       4.267375       116.1212 
 647   0.0000       4.277178       116.3879 
 648   0.0000       4.282772       116.5402 
 649   0.0000       4.289154       116.7138 
 650   0.0000       4.304889       117.1420 
 651   0.0000       4.311594       117.3244 
 652   0.0000       4.316641       117.4618 
 653   0.0000       4.328130       117.7744 
 654   0.0000       4.334990       117.9611 
 655   0.0000       4.343357       118.1887 
 656   0.0000       4.373272       119.0028 
 657   0.0000       4.389635       119.4480 
 658   0.0000       4.410064       120.0039 
 659   0.0000       4.413525       120.0981 
 660   0.0000       4.443496       120.9137 
 661   0.0000       4.461179       121.3948 
 662   0.0000       4.466508       121.5399 
 663   0.0000       4.487650       122.1152 
 664   0.0000       4.497341       122.3789 
 665   0.0000       4.513194       122.8102 
 666   0.0000       4.527206       123.1915 
 667   0.0000       4.532088       123.3244 
 668   0.0000       4.541520       123.5810 
 669   0.0000       4.550346       123.8212 
 670   0.0000       4.565880       124.2439 
 671   0.0000       4.578491       124.5871 
 672   0.0000       4.597752       125.1112 
 673   0.0000       4.607395       125.3736 
 674   0.0000       4.631439       126.0278 
 675   0.0000       4.636101       126.1547 
 676   0.0000       4.639073       126.2356 
 677   0.0000       4.656187       126.7013 
 678   0.0000       4.665642       126.9586 
 679   0.0000       4.680301       127.3575 
 680   0.0000       4.700915       127.9184 
 681   0.0000       4.726504       128.6147 
 682   0.0000       4.735291       128.8538 
 683   0.0000       4.740255       128.9889 
 684   0.0000       4.771239       129.8320 
 685   0.0000       4.790832       130.3652 
 686   0.0000       4.801163       130.6463 
 687   0.0000       4.814632       131.0128 
 688   0.0000       4.824321       131.2765 
 689   0.0000       4.842306       131.7658 
 690   0.0000       4.859831       132.2427 
 691   0.0000       4.877578       132.7257 
 692   0.0000       4.891954       133.1168 
 693   0.0000       4.921014       133.9076 
 694   0.0000       4.961323       135.0045 
 695   0.0000       5.010548       136.3440 
 696   0.0000       5.027236       136.7981 
 697   0.0000       5.043120       137.2303 
 698   0.0000       5.094278       138.6223 
 699   0.0000       5.125691       139.4771 
 700   0.0000       5.154905       140.2721 
 701   0.0000       5.169369       140.6657 
 702   0.0000       5.187953       141.1714 
 703   0.0000       5.199494       141.4854 
 704   0.0000       5.220921       142.0685 
 705   0.0000       5.245175       142.7285 
 706   0.0000       5.282087       143.7329 
 707   0.0000       5.289372       143.9311 
 708   0.0000       5.296902       144.1360 
 709   0.0000       5.317132       144.6865 
 710   0.0000       5.350062       145.5826 
 711   0.0000       5.351086       145.6105 
 712   0.0000       5.354137       145.6935 
 713   0.0000       5.362225       145.9135 
 714   0.0000       5.364144       145.9658 
 715   0.0000       5.366653       146.0340 
 716   0.0000       5.372187       146.1846 
 717   0.0000       5.373759       146.2274 
 718   0.0000       5.382090       146.4541 
 719   0.0000       5.402323       147.0047 
 720   0.0000       5.427271       147.6836 
 721   0.0000       5.447541       148.2351 
 722   0.0000       5.457144       148.4964 
 723   0.0000       5.475008       148.9826 
 724   0.0000       5.493689       149.4909 
 725   0.0000       5.506326       149.8348 
 726   0.0000       5.526696       150.3890 
 727   0.0000       5.531027       150.5069 
 728   0.0000       5.575276       151.7110 
 729   0.0000       5.606135       152.5507 
 730   0.0000       5.632474       153.2674 
 731   0.0000       5.684944       154.6952 
 732   0.0000       5.699660       155.0956 
 733   0.0000       5.751650       156.5104 
 734   0.0000       5.773258       157.0983 
 735   0.0000       5.780893       157.3061 
 736   0.0000       5.788908       157.5242 
 737   0.0000       5.795955       157.7160 
 738   0.0000       5.805222       157.9681 
 739   0.0000       5.810351       158.1077 
 740   0.0000       5.824931       158.5044 
 741   0.0000       5.836640       158.8230 
 742   0.0000       5.842369       158.9789 
 743   0.0000       5.848965       159.1584 
 744   0.0000       5.870080       159.7330 
 745   0.0000       5.875275       159.8744 
 746   0.0000       5.882862       160.0808 
 747   0.0000       5.911966       160.8728 
 748   0.0000       5.955046       162.0450 
 749   0.0000       5.990302       163.0044 
 750   0.0000       6.048089       164.5769 
 751   0.0000       6.145549       167.2289 
 752   0.0000       6.179834       168.1618 
 753   0.0000       6.220869       169.2785 
 754   0.0000       6.337285       172.4463 
 755   0.0000       6.371921       173.3888 
 756   0.0000       6.546408       178.1368 
 757   0.0000       6.558678       178.4707 
 758   0.0000       6.562621       178.5780 
 759   0.0000       6.688707       182.0090 
 760   0.0000       6.699974       182.3156 
 761   0.0000       6.714684       182.7158 
 762   0.0000       6.727172       183.0556 
 763   0.0000       6.732026       183.1878 
 764   0.0000       6.742397       183.4700 
 765   0.0000       6.745251       183.5476 
 766   0.0000       6.749129       183.6531 
 767   0.0000       6.764238       184.0643 
 768   0.0000       6.768914       184.1915 
 769   0.0000       6.784845       184.6250 
 770   0.0000       6.795645       184.9189 
 771   0.0000       6.799516       185.0242 
 772   0.0000       6.831187       185.8860 
 773   0.0000       6.870616       186.9590 
 774   0.0000       6.908395       187.9870 
 775   0.0000       6.925067       188.4407 
 776   0.0000       6.940566       188.8624 
 777   0.0000       6.973267       189.7522 
 778   0.0000       6.992701       190.2811 
 779   0.0000       7.098777       193.1675 
 780   0.0000       7.115852       193.6322 
 781   0.0000       7.139972       194.2885 
 782   0.0000       7.175044       195.2429 
 783   0.0000       7.183579       195.4751 
 784   0.0000       7.190456       195.6623 
 785   0.0000       7.195572       195.8015 
 786   0.0000       7.202523       195.9906 
 787   0.0000       7.202740       195.9965 
 788   0.0000       7.215367       196.3401 
 789   0.0000       7.247910       197.2257 
 790   0.0000       7.304578       198.7677 
 791   0.0000       7.310392       198.9259 
 792   0.0000       7.327513       199.3918 
 793   0.0000       7.430333       202.1896 
 794   0.0000       7.516356       204.5305 
 795   0.0000       7.530018       204.9022 
 796   0.0000       7.541156       205.2053 
 797   0.0000       7.549849       205.4418 
 798   0.0000       7.617806       207.2910 
 799   0.0000       7.650147       208.1711 
 800   0.0000       7.747490       210.8199 
 801   0.0000       7.794482       212.0986 
 802   0.0000       7.906107       215.1361 
 803   0.0000       8.064955       219.4586 
 804   0.0000       8.484909       230.8861 
 805   0.0000      23.775724       646.9703 
 806   0.0000      23.951878       651.7637 
 807   0.0000      24.047950       654.3780 
 808   0.0000      24.061005       654.7332 
 809   0.0000      24.118602       656.3005 
 810   0.0000      24.274443       660.5412 
 811   0.0000      24.328189       662.0037 
 812   0.0000      24.385850       663.5727 
 813   0.0000      24.491611       666.4506 
 814   0.0000      45.198086      1229.9025 
 815   0.0000      45.268349      1231.8144 
 816   0.0000      45.315094      1233.0864 
 817   0.0000      45.357050      1234.2281 
 818   0.0000      45.505894      1238.2783 
 819   0.0000      45.616817      1241.2967 
 820   0.0000      49.490510      1346.7053 
 821   0.0000      50.301601      1368.7762 
 822   0.0000      50.729951      1380.4321 
 823   0.0000      68.451969      1862.6728 
 824   0.0000     511.621208     13921.9208 

                    ********************************
                    * MULLIKEN POPULATION ANALYSIS *
                    ********************************

-----------------------
MULLIKEN ATOMIC CHARGES
-----------------------
   0 Re:    0.744830
   1 C :    0.409924
   2 C :    0.660466
   3 C :    0.033369
   4 Br:   -0.654272
   5 O :   -0.405892
   6 O :   -0.315872
   7 O :   -0.349395
   8 C :   -0.994261
   9 C :    0.155439
  10 C :    1.757710
  11 C :    0.298706
  12 O :   -0.655577
  13 O :   -0.306914
  14 C :   -0.170168
  15 O :   -0.447683
  16 H :    0.270270
  17 C :   -0.076425
  18 H :    0.052893
  19 H :    0.095923
  20 H :    0.107954
  21 H :   -0.135673
  22 H :    0.004898
  23 H :   -0.146431
  24 H :    0.066181
Sum of atomic charges:    0.0000000

--------------------------------
MULLIKEN REDUCED ORBITAL CHARGES
--------------------------------
  0 Res       :     2.682793  s :     2.682793
      pz      :     2.281042  p :     6.126357
      px      :     2.069909
      py      :     1.775406
      dz2     :     1.134339  d :     5.248634
      dxz     :     0.670856
      dyz     :     1.389268
      dx2y2   :     0.955244
      dxy     :     1.098927
      f0      :     0.014038  f :     0.189198
      f+1     :     0.051839
      f-1     :     0.017960
      f+2     :     0.032094
      f-2     :     0.022226
      f+3     :     0.015623
      f-3     :     0.035418
      g0      :     0.000844  g :     0.008188
      g+1     :     0.001168
      g-1     :     0.000344
      g+2     :     0.001535
      g-2     :     0.000728
      g+3     :     0.000729
      g-3     :     0.000996
      g+4     :     0.001204
      g-4     :     0.000640
  1 C s       :     3.445078  s :     3.445078
      pz      :     0.794174  p :     2.002739
      px      :     0.647353
      py      :     0.561212
      dz2     :     0.039618  d :     0.123037
      dxz     :    -0.000775
      dyz     :     0.048221
      dx2y2   :     0.011118
      dxy     :     0.024856
      f0      :     0.004911  f :     0.019222
      f+1     :     0.003790
      f-1     :     0.002501
      f+2     :     0.002926
      f-2     :     0.003783
      f+3     :     0.000591
      f-3     :     0.000720
  2 C s       :     3.212012  s :     3.212012
      pz      :     0.738485  p :     1.963228
      px      :     0.652127
      py      :     0.572616
      dz2     :     0.056496  d :     0.143199
      dxz     :    -0.007314
      dyz     :     0.041074
      dx2y2   :     0.017584
      dxy     :     0.035359
      f0      :     0.004688  f :     0.021095
      f+1     :     0.004246
      f-1     :     0.002142
      f+2     :     0.003623
      f-2     :     0.004332
      f+3     :     0.000977
      f-3     :     0.001087
  3 C s       :     3.513866  s :     3.513866
      pz      :     0.649712  p :     2.216750
      px      :     0.594391
      py      :     0.972647
      dz2     :     0.003946  d :     0.215049
      dxz     :     0.003698
      dyz     :     0.106653
      dx2y2   :     0.010930
      dxy     :     0.089822
      f0      :     0.002707  f :     0.020965
      f+1     :     0.000479
      f-1     :     0.002454
      f+2     :     0.004462
      f-2     :     0.000229
      f+3     :     0.006525
      f-3     :     0.004109
  4 Brs       :     8.116842  s :     8.116842
      pz      :     5.961664  p :    17.503228
      px      :     5.898249
      py      :     5.643315
      dz2     :     2.004620  d :    10.031381
      dxz     :     2.000943
      dyz     :     2.008045
      dx2y2   :     2.012275
      dxy     :     2.005498
      f0      :     0.000372  f :     0.002822
      f+1     :     0.000092
      f-1     :     0.000384
      f+2     :     0.000434
      f-2     :     0.000263
      f+3     :     0.000645
      f-3     :     0.000631
  5 O s       :     3.951600  s :     3.951600
      pz      :     1.540993  p :     4.404439
      px      :     1.520138
      py      :     1.343309
      dz2     :     0.003461  d :     0.047878
      dxz     :    -0.000019
      dyz     :     0.016656
      dx2y2   :     0.011480
      dxy     :     0.016299
      f0      :     0.000267  f :     0.001975
      f+1     :     0.000047
      f-1     :     0.000217
      f+2     :     0.000430
      f-2     :     0.000010
      f+3     :     0.000668
      f-3     :     0.000337
  6 O s       :     3.919733  s :     3.919733
      pz      :     1.397271  p :     4.340115
      px      :     1.449381
      py      :     1.493462
      dz2     :     0.016760  d :     0.053978
      dxz     :     0.012861
      dyz     :     0.012332
      dx2y2   :     0.006071
      dxy     :     0.005953
      f0      :     0.000542  f :     0.002047
      f+1     :     0.000371
      f-1     :     0.000277
      f+2     :     0.000301
      f-2     :     0.000416
      f+3     :     0.000064
      f-3     :     0.000076
  7 O s       :     3.934495  s :     3.934495
      pz      :     1.412514  p :     4.357765
      px      :     1.461589
      py      :     1.483662
      dz2     :     0.016664  d :     0.055100
      dxz     :     0.013532
      dyz     :     0.011708
      dx2y2   :     0.006462
      dxy     :     0.006734
      f0      :     0.000463  f :     0.002035
      f+1     :     0.000398
      f-1     :     0.000220
      f+2     :     0.000347
      f-2     :     0.000426
      f+3     :     0.000090
      f-3     :     0.000091
  8 C s       :     3.767661  s :     3.767661
      pz      :     1.064756  p :     3.063151
      px      :     0.953330
      py      :     1.045065
      dz2     :     0.033496  d :     0.155494
      dxz     :     0.036651
      dyz     :     0.032761
      dx2y2   :     0.038791
      dxy     :     0.013795
      f0      :     0.000961  f :     0.007956
      f+1     :     0.000901
      f-1     :     0.001028
      f+2     :     0.001706
      f-2     :     0.001015
      f+3     :     0.000932
      f-3     :     0.001413
  9 C s       :     3.127760  s :     3.127760
      pz      :     1.028377  p :     2.765483
      px      :     0.931546
      py      :     0.805560
      dz2     :    -0.010596  d :    -0.054935
      dxz     :    -0.000233
      dyz     :    -0.021979
      dx2y2   :     0.007320
      dxy     :    -0.029446
      f0      :     0.000693  f :     0.006253
      f+1     :     0.000771
      f-1     :     0.000632
      f+2     :     0.001181
      f-2     :     0.000625
      f+3     :     0.000941
      f-3     :     0.001410
 10 C s       :     1.780103  s :     1.780103
      pz      :     0.827133  p :     2.396991
      px      :     0.856955
      py      :     0.712904
      dz2     :     0.040250  d :     0.056860
      dxz     :     0.014815
      dyz     :     0.008489
      dx2y2   :     0.052554
      dxy     :    -0.059248
      f0      :     0.000924  f :     0.008336
      f+1     :     0.001483
      f-1     :     0.000801
      f+2     :     0.001602
      f-2     :     0.001608
      f+3     :     0.000949
      f-3     :     0.000969
 11 C s       :     3.398630  s :     3.398630
      pz      :     0.610935  p :     2.006194
      px      :     0.745930
      py      :     0.649329
      dz2     :     0.050944  d :     0.269196
      dxz     :     0.069340
      dyz     :     0.012529
      dx2y2   :     0.033930
      dxy     :     0.102454
      f0      :     0.001915  f :     0.027273
      f+1     :     0.002380
      f-1     :     0.004120
      f+2     :     0.003885
      f-2     :     0.004195
      f+3     :     0.006284
      f-3     :     0.004494
 12 O s       :     3.946390  s :     3.946390
      pz      :     1.452614  p :     4.672234
      px      :     1.840526
      py      :     1.379095
      dz2     :     0.010757  d :     0.034991
      dxz     :    -0.000943
      dyz     :     0.014717
      dx2y2   :     0.010362
      dxy     :     0.000097
      f0      :     0.000148  f :     0.001962
      f+1     :     0.000046
      f-1     :     0.000532
      f+2     :     0.000376
      f-2     :     0.000304
      f+3     :     0.000264
      f-3     :     0.000291
 13 O s       :     3.819649  s :     3.819649
      pz      :     1.699249  p :     4.465517
      px      :     1.155898
      py      :     1.610370
[...]
      pz      :     0.885896  p :     2.653314
      px      :     1.005144
      py      :     0.762275
      dz2     :     0.101798  d :     0.685666
      dxz     :     0.190565
      dyz     :     0.090977
      dx2y2   :     0.135299
      dxy     :     0.167028
      f0      :     0.004950  f :     0.034005
      f+1     :     0.004840
      f-1     :     0.002857
      f+2     :     0.005953
      f-2     :     0.002426
      f+3     :     0.005873
      f-3     :     0.007105
 10 C s       :     2.577946  s :     2.577946
      pz      :     0.861761  p :     2.571291
      px      :     0.832394
      py      :     0.877136
      dz2     :     0.187420  d :     0.905175
      dxz     :     0.205927
      dyz     :     0.171747
      dx2y2   :     0.173733
      dxy     :     0.166349
      f0      :     0.007862  f :     0.054038
      f+1     :     0.008763
      f-1     :     0.005859
      f+2     :     0.009227
      f-2     :     0.008556
      f+3     :     0.006799
      f-3     :     0.006972
 11 C s       :     2.604525  s :     2.604525
      pz      :     0.657753  p :     2.258218
      px      :     0.802878
      py      :     0.797587
      dz2     :     0.205236  d :     1.360568
      dxz     :     0.277037
      dyz     :     0.201206
      dx2y2   :     0.307599
      dxy     :     0.369489
      f0      :     0.013899  f :     0.166956
      f+1     :     0.014755
      f-1     :     0.019285
      f+2     :     0.024022
      f-2     :     0.026731
      f+3     :     0.038810
      f-3     :     0.029454
 12 O s       :     3.276946  s :     3.276946
      pz      :     1.363369  p :     4.341106
      px      :     1.552274
      py      :     1.425464
      dz2     :     0.035685  d :     0.271391
      dxz     :     0.033727
      dyz     :     0.065274
      dx2y2   :     0.075944
      dxy     :     0.060762
      f0      :     0.000513  f :     0.006040
      f+1     :     0.000121
      f-1     :     0.000921
      f+2     :     0.001447
      f-2     :     0.001185
      f+3     :     0.001007
      f-3     :     0.000847
 13 O s       :     3.172862  s :     3.172862
      pz      :     1.516518  p :     4.296676
      px      :     1.272747
      py      :     1.507411
      dz2     :     0.072138  d :     0.507597
      dxz     :     0.104570
      dyz     :     0.043396
      dx2y2   :     0.153750
      dxy     :     0.133743
      f0      :     0.000415  f :     0.006777
      f+1     :     0.001076
      f-1     :     0.000357
      f+2     :     0.000556
      f-2     :     0.001271
      f+3     :     0.001815
      f-3     :     0.001287
 14 C s       :     2.624077  s :     2.624077
      pz      :     0.829969  p :     2.433926
      px      :     0.819383
      py      :     0.784575
      dz2     :     0.167228  d :     1.001443
      dxz     :     0.195688
      dyz     :     0.243774
      dx2y2   :     0.198595
      dxy     :     0.196158
      f0      :     0.009722  f :     0.081404
      f+1     :     0.006756
      f-1     :     0.017673
      f+2     :     0.013028
      f-2     :     0.012906
      f+3     :     0.011028
      f-3     :     0.010291
 15 O s       :     3.147189  s :     3.147189
      pz      :     1.542183  p :     4.304021
      px      :     1.457227
      py      :     1.304611
      dz2     :     0.089179  d :     0.439403
      dxz     :     0.066870
      dyz     :     0.082444
      dx2y2   :     0.096475
      dxy     :     0.104435
      f0      :     0.000289  f :     0.005232
      f+1     :     0.000385
      f-1     :     0.001055
      f+2     :     0.000972
      f-2     :     0.001152
      f+3     :     0.000784
      f-3     :     0.000594
 16 H s       :     0.520096  s :     0.520096
      pz      :     0.133479  p :     0.547127
      px      :     0.247575
      py      :     0.166073
      dz2     :     0.010480  d :     0.095976
      dxz     :     0.012966
      dyz     :     0.019031
      dx2y2   :     0.029026
      dxy     :     0.024474
 17 C s       :     2.627840  s :     2.627840
      pz      :     0.907772  p :     2.528904
      px      :     0.757965
      py      :     0.863167
      dz2     :     0.140868  d :     0.588524
      dxz     :     0.095985
      dyz     :     0.067921
      dx2y2   :     0.142118
      dxy     :     0.141631
      f0      :     0.008778  f :     0.062573
      f+1     :     0.006809
      f-1     :     0.003490
      f+2     :     0.007975
      f-2     :     0.012892
      f+3     :     0.009962
      f-3     :     0.012668
 18 H s       :     0.706954  s :     0.706954
      pz      :     0.076786  p :     0.252270
      px      :     0.098157
      py      :     0.077327
      dz2     :     0.004545  d :     0.028570
      dxz     :     0.006886
      dyz     :     0.002302
      dx2y2   :     0.007205
      dxy     :     0.007631
 19 H s       :     0.696326  s :     0.696326
      pz      :     0.134616  p :     0.260513
      px      :     0.062350
      py      :     0.063546
      dz2     :     0.011322  d :     0.028506
      dxz     :     0.007769
      dyz     :     0.009224
      dx2y2   :     0.000039
      dxy     :     0.000153
 20 H s       :     0.694856  s :     0.694856
      pz      :     0.076502  p :     0.260456
      px      :     0.062317
      py      :     0.121637
      dz2     :     0.004816  d :     0.028526
      dxz     :     0.000694
      dyz     :     0.008560
      dx2y2   :     0.007327
      dxy     :     0.007129
 21 H s       :     0.722670  s :     0.722670
      pz      :     0.123032  p :     0.314482
      px      :     0.090626
      py      :     0.100824
      dz2     :     0.007660  d :     0.029138
      dxz     :     0.006045
      dyz     :     0.007348
      dx2y2   :     0.004016
      dxy     :     0.004070
 22 H s       :     0.663898  s :     0.663898
      pz      :     0.070826  p :     0.252922
      px      :     0.074257
      py      :     0.107838
      dz2     :     0.003513  d :     0.029891
      dxz     :     0.002391
      dyz     :     0.008101
      dx2y2   :     0.007905
      dxy     :     0.007981
 23 H s       :     0.701763  s :     0.701763
      pz      :     0.095456  p :     0.265955
      px      :     0.088236
      py      :     0.082263
      dz2     :     0.007022  d :     0.028280
      dxz     :     0.007371
      dyz     :     0.005328
      dx2y2   :     0.004056
      dxy     :     0.004504
 24 H s       :     0.685137  s :     0.685137
      pz      :     0.085276  p :     0.263019
      px      :     0.081265
      py      :     0.096479
      dz2     :     0.004658  d :     0.029889
      dxz     :     0.004037
      dyz     :     0.009297
      dx2y2   :     0.006163
      dxy     :     0.005735


                      *****************************
                      * MAYER POPULATION ANALYSIS *
                      *****************************

  NA   - Mulliken gross atomic population
  ZA   - Total nuclear charge
  QA   - Mulliken gross atomic charge
  VA   - Mayer's total valence
  BVA  - Mayer's bonded valence
  FA   - Mayer's free valence

  ATOM       NA         ZA         QA         VA         BVA        FA
  0 Re    14.2552    15.0000     0.7448     5.2191     5.2191     0.0000
  1 C      5.5901     6.0000     0.4099     2.9687     2.9687    -0.0000
  2 C      5.3395     6.0000     0.6605     3.1652     3.1652     0.0000
  3 C      5.9666     6.0000     0.0334     3.5433     3.5433     0.0000
  4 Br    35.6543    35.0000    -0.6543     0.6158     0.6158    -0.0000
  5 O      8.4059     8.0000    -0.4059     2.1795     2.1795     0.0000
  6 O      8.3159     8.0000    -0.3159     2.2952     2.2952     0.0000
  7 O      8.3494     8.0000    -0.3494     2.2753     2.2753     0.0000
  8 C      6.9943     6.0000    -0.9943     3.9999     3.9999     0.0000
  9 C      5.8446     6.0000     0.1554     3.2793     3.2793     0.0000
 10 C      4.2423     6.0000     1.7577     0.8751     0.8751    -0.0000
 11 C      5.7013     6.0000     0.2987     3.5844     3.5844     0.0000
 12 O      8.6556     8.0000    -0.6556     1.6056     1.6056     0.0000
 13 O      8.3069     8.0000    -0.3069     1.7476     1.7476    -0.0000
 14 C      6.1702     6.0000    -0.1702     4.0813     4.0813     0.0000
 15 O      8.4477     8.0000    -0.4477     1.8406     1.8406     0.0000
 16 H      0.7297     1.0000     0.2703     0.9883     0.9883     0.0000
 17 C      6.0764     6.0000    -0.0764     3.8176     3.8176    -0.0000
 18 H      0.9471     1.0000     0.0529     1.0236     1.0236     0.0000
 19 H      0.9041     1.0000     0.0959     1.0499     1.0499     0.0000
 20 H      0.8920     1.0000     0.1080     1.0411     1.0411    -0.0000
 21 H      1.1357     1.0000    -0.1357     1.0275     1.0275     0.0000
 22 H      0.9951     1.0000     0.0049     0.9083     0.9083    -0.0000
 23 H      1.1464     1.0000    -0.1464     0.9969     0.9969     0.0000
 24 H      0.9338     1.0000     0.0662     0.9253     0.9253     0.0000

  Mayer bond orders larger than 0.100000
B(  0-Re,  1-C ) :   0.7532 B(  0-Re,  2-C ) :   1.0411 B(  0-Re,  3-C ) :   1.1927 
B(  0-Re,  4-Br) :   0.3588 B(  0-Re,  9-C ) :   0.6526 B(  0-Re, 14-C ) :   0.6910 
B(  0-Re, 15-O ) :   0.3797 B(  1-C ,  2-C ) :  -0.1011 B(  1-C ,  6-O ) :   2.2296 
B(  2-C ,  7-O ) :   2.1753 B(  3-C ,  5-O ) :   2.0644 B(  3-C , 14-C ) :   0.2257 
B(  8-C ,  9-C ) :   1.8099 B(  8-C , 10-C ) :  -0.1135 B(  8-C , 11-C ) :   0.5784 
B(  8-C , 14-C ) :   0.4734 B(  8-C , 22-H ) :  -0.1026 B(  8-C , 23-H ) :   1.2737 
B(  9-C , 21-H ) :   1.0902 B(  9-C , 23-H ) :  -0.1411 B( 10-C , 12-O ) :  -0.1186 
B( 10-C , 14-C ) :   0.4875 B( 10-C , 22-H ) :   1.0393 B( 10-C , 23-H ) :  -0.2806 
B( 10-C , 24-H ) :  -0.1127 B( 11-C , 12-O ) :   1.5037 B( 11-C , 13-O ) :   0.8672 
B( 11-C , 14-C ) :   0.5006 B( 12-O , 14-C ) :   0.1164 B( 13-O , 17-C ) :   0.8043 
B( 14-C , 15-O ) :   0.6248 B( 14-C , 24-H ) :   0.9978 B( 15-O , 16-H ) :   0.8865 
B( 17-C , 18-H ) :   1.0604 B( 17-C , 19-H ) :   0.9911 B( 17-C , 20-H ) :   0.9863 


-------
TIMINGS
-------

Total SCF time: 0 days 0 hours 1 min 19 sec 

Total time                  ....      79.450 sec
Sum of individual times     ....      78.547 sec  ( 98.9%)

Fock matrix formation       ....      70.983 sec  ( 89.3%)
  XC integration            ....       5.823 sec  (  8.2% of F)
    Basis function eval.    ....       1.043 sec  ( 17.9% of XC)
    Density eval.           ....       1.959 sec  ( 33.6% of XC)
    XC-Functional eval.     ....       0.062 sec  (  1.1% of XC)
    XC-Potential eval.      ....       2.134 sec  ( 36.6% of XC)
Diagonalization             ....       2.676 sec  (  3.4%)
Density matrix formation    ....       0.111 sec  (  0.1%)
Population analysis         ....       0.136 sec  (  0.2%)
Initial guess               ....       2.064 sec  (  2.6%)
Orbital Transformation      ....       0.000 sec  (  0.0%)
Orbital Orthonormalization  ....       0.000 sec  (  0.0%)
DIIS solution               ....       1.479 sec  (  1.9%)
Grid generation             ....       1.098 sec  (  1.4%)


           ************************************************************
           *        Program running with 24 parallel MPI-processes    *
           *              working on a common directory               *
           ************************************************************

------------------------------------------------------------------------------
                                ORCA  MP2 
------------------------------------------------------------------------------

Freezing NCore=48 chemical core electrons

-------------
RI-MP2 ENERGY
-------------
Dimension of the basis                    ...  825
Memory devoted to MP2                     ... 5000 MB   
Data format for buffers                   ... DOUBLE
Compression type for matrix containers    ... UNCOMPRESSED
Scaling for aa/bb pairs                   ...   4.000e-01
Scaling for ab pairs                      ...   4.700e-01
Overall scaling of the MP2 energy         ...   1.000e+00
Calculating two index integrals           ... done (    0.032 sec)
Cholesky decomposition of V**-1           ... done (    0.420 sec)

-----------------
RI-TRANSFORMATION (AUX index driven)
-----------------

Dimension of the orbital-basis         ... 825
Dimension of the aux-basis             ... 2060
Transformation of internal/external MOs...   24-  79 to   80- 824
Number Format for Storage              ... Double (8 Byte)
Integral mode                          ... Direct

First Phase: integral generation and transformation of MO indices
  Aux angular momentum 0               ... done (    0.170 sec)
  Aux angular momentum 1               ... done (    0.324 sec)
  Aux angular momentum 2               ... done (    0.413 sec)
  Aux angular momentum 3               ... done (    0.459 sec)
  Aux angular momentum 4               ... done (    0.130 sec)
  Aux angular momentum 5               ... done (    0.167 sec)
  Aux angular momentum 6               ... done (    0.213 sec)
Closing buffer VIA ( 0.64 GB; CompressionRatio= 1.00)
  Phase 1 completed in     1.994 sec
Second Phase: sorting and transformation of aux index

IA-Transformation
Memory available                       ... 4915 MB 
Max. # MO pairs treated in a batch     ... 3    
# of internal orbitals                 ... 56
# batches for internal orbitals        ... 1
Closing buffer IAV ( 0.03 GB; CompressionRatio= 1.00)
(ia|v) transformation done in     0.503 sec

  Phase 2 completed in     1.164 sec
RI-Integral transformation completed in     3.169 sec
Opening buffers                              ... done

Starting loop over batches of integrals:

Operator 0  - window                       ... ( 24- 79)x( 80-824)
Operator 0  - Memory available             ...  5000 MB
Operator 0  - Memory needed per MO         ...  11.7 MB
Operator 0  - Number of orbitals per batch ... 3
Operator 0  - Number of batches            ... 1

OPERATOR  0   PASS   0:  MOs    24 ...   26 +   27 ...   29 +   30 ...   32 +   33 ...   35
                            +   36 ...   38 +   39 ...   41 +   42 ...   44 +   45 ...   47
                            +   48 ...   50 +   51 ...   53 +   54 ...   56 +   57 ...   59
                            +   60 ...   62 +   63 ...   65 +   66 ...   68 +   69 ...   71
                            +   72 ...   74 +   75 ...   77 +   78 ...   79
  Reading integrals       ... ok
  Internal MO  26
Time spent in pair loops =     0.329 sec
Deleting buffer (Ka|jb)[aa] ...done

-----------------------------------------------
 RI-MP2 CORRELATION ENERGY:     -1.893463754 Eh
-----------------------------------------------


-------
TIMINGS
-------

Total time                :   10.617 sec
Integral trafo            :    3.180 sec ( 30.0%)
I/O of integrals          :    0.030 sec (  0.3%)
K(i,j) Operators          :    0.215 sec (  2.0%)
T(i,j) pair energies      :    0.039 sec (  0.4%)
V-calculation             :    0.032 sec (  0.3%)
V**(-1/2)                 :    0.420 sec (  4.0%)
Gamma(ia|P)               :    0.000 sec (  0.0%)
Gamma-Trafo               :    0.000 sec (  0.0%)
D(virtual)                :    0.000 sec (  0.0%)
D(internal)               :    0.000 sec (  0.0%)
W(virtual)                :    0.000 sec (  0.0%)
W(internal)               :    0.000 sec (  0.0%)
L(virtual)                :    0.000 sec (  0.0%)
L(internal)               :    0.000 sec (  0.0%)
G(D)                      :    0.000 sec (  0.0%)
G(Z)                      :    0.000 sec (  0.0%)
Z-Vector Solution         :    0.000 sec (  0.0%)
Z-Vector Solution         :    0.000 sec (  0.0%)
3-Index Derivative 
+ Separable RIJ part      :    0.000 sec (  0.0%)
2-Index Derivative 
+ Separable RIJ part      :    0.000 sec (  0.0%)
Separable Gradient (X)    :    0.000 sec (  0.0%)


---------------------------------------
MP2 TOTAL ENERGY:    -3450.326229522 Eh
---------------------------------------


-------------------------------------------------------------------------------
                          DFT DISPERSION CORRECTION                            
                                                                               
                              DFTD3 V3.1  Rev 1                                
                          USING Becke-Johnson damping                          
-------------------------------------------------------------------------------
The DSD-BLYP/2013 functional is recognized
Active option DFTDOPT                   ...         4   

molecular C6(AA) [au] = 12002.907786 


            DFT-D V3
 parameters
 s6 scaling factor         :     0.5700 
 a1 scaling factor         :     0.0000 
 s8 scaling factor         :     0.0000 
 a2 scaling factor         :     5.4000 
 ad hoc parameters k1-k3   :    16.0000     1.3333    -4.0000 

 Edisp/kcal,au: -26.461044029676  -0.042168353309 
 E6   /kcal   : -26.461044030 
 E8   /kcal   :  -0.000000000 
 % E8         :   0.000000000 

-------------------------   ----------------
Dispersion correction           -0.042168353
-------------------------   ----------------


-------------------------   --------------------
FINAL SINGLE POINT ENERGY     -3450.368397875634
-------------------------   --------------------


                            ***************************************
                            *     ORCA property calculations      *
                            ***************************************


  WARNING: The energy has been calculated at the MP2 level but the densities
           used in the property calculations are still SCF densities
           MP2 response densities have not been calculated 
           use %mp2 Density relaxed end
           or  %mp2 Density unrelaxed end

                                    ---------------------
                                    Active property flags
                                    ---------------------
   (+) Dipole Moment


------------------------------------------------------------------------------
                       ORCA ELECTRIC PROPERTIES CALCULATION
------------------------------------------------------------------------------

Dipole Moment Calculation                       ... on
Quadrupole Moment Calculation                   ... off
Polarizability Calculation                      ... off
GBWName                                         ... TMB20_I1.gbw
Electron density file                           ... TMB20_I1.scfp
The origin for moment calculation is the CENTER OF MASS  = ( 0.273450, -0.033238 -0.010571)

-------------
DIPOLE MOMENT
-------------
                                X             Y             Z
Electronic contribution:    123.16609      30.11725      -3.27877
Nuclear contribution   :   -125.53088     -28.89018       3.09124
                        -----------------------------------------
Total Dipole Moment    :     -2.36478       1.22707      -0.18753
                        -----------------------------------------
Magnitude (a.u.)       :      2.67078
Magnitude (Debye)      :      6.78859



--------------------
Rotational spectrum 
--------------------
 
Rotational constants in cm-1:     0.016025     0.007116     0.006337 
Rotational constants in MHz :   480.407323   213.341783   189.987107 

 Dipole components along the rotational axes: 
x,y,z [a.u.] :    -2.394798     1.165885    -0.196797 
x,y,z [Debye]:    -6.087092     2.963445    -0.500217 

 

Timings for individual modules:

Sum of individual times         ...       94.997 sec (=   1.583 min)
GTO integral calculation        ...        3.854 sec (=   0.064 min)   4.1 %
SCF iterations                  ...       79.825 sec (=   1.330 min)  84.0 %
MP2 module                      ...       11.318 sec (=   0.189 min)  11.9 %
                             ****ORCA TERMINATED NORMALLY****
TOTAL RUN TIME: 0 days 0 hours 1 minutes 35 seconds 631 msec
