
                                 *****************
                                 * O   R   C   A *
                                 *****************

           --- An Ab Initio, DFT and Semiempirical electronic structure package ---

                  #######################################################
                  #                        -***-                        #
                  #          Department of theory and spectroscopy      #
                  #               Directorship: Frank Neese             #
                  #        Max Planck Institute fuer Kohlenforschung    #
                  #                Kaiser Wilhelm Platz 1               #
                  #                 D-45470 Muelheim/Ruhr               #
                  #                      Germany                        #
                  #                                                     #
                  #                  All rights reserved                #
                  #                        -***-                        #
                  #######################################################


                         Program Version 4.2.0 -  RELEASE  -


 With contributions from (in alphabetic order):
   Daniel Aravena         : Magnetic Suceptibility
   Michael Atanasov       : Ab Initio Ligand Field Theory (pilot matlab implementation)
   Alexander A. Auer      : GIAO ZORA, VPT2
   Ute Becker             : Parallelization
   Giovanni Bistoni       : ED, misc. LED, open-shell LED, HFLED
   Martin Brehm           : Molecular dynamics
   Dmytro Bykov           : SCF Hessian
   Vijay G. Chilkuri      : MRCI spin determinant printing, contributions to CSF-ICE
   Dipayan Datta          : RHF DLPNO-CCSD density
   Achintya Kumar Dutta   : EOM-CC, STEOM-CC
   Dmitry Ganyushin       : Spin-Orbit,Spin-Spin,Magnetic field MRCI
   Miquel Garcia          : C-PCM Hessian, Gaussian charge scheme
   Yang Guo               : DLPNO-NEVPT2, CIM, IAO-localization
   Andreas Hansen         : Spin unrestricted coupled pair/coupled cluster methods
   Benjamin Helmich-Paris : CASSCF linear response (MC-RPA)
   Lee Huntington         : MR-EOM, pCC
   Robert Izsak           : Overlap fitted RIJCOSX, COSX-SCS-MP3, EOM
   Christian Kollmar      : KDIIS, OOCD, Brueckner-CCSD(T), CCSD density
   Simone Kossmann        : Meta GGA functionals, TD-DFT gradient, OOMP2, MP2 Hessian
   Martin Krupicka        : AUTO-CI
   Lucas Lang             : DCDCAS
   Dagmar Lenk            : GEPOL surface, SMD
   Dimitrios Liakos       : Extrapolation schemes; Compound Job, initial MDCI parallelization
   Dimitrios Manganas     : Further ROCIS development; embedding schemes
   Dimitrios Pantazis     : SARC Basis sets
   Taras Petrenko         : DFT Hessian,TD-DFT gradient, ASA, ECA, R-Raman, ABS, FL, XAS/XES, NRVS
   Peter Pinski           : DLPNO-MP2, DLPNO-MP2 Gradient
   Christoph Reimann      : Effective Core Potentials
   Marius Retegan         : Local ZFS, SOC
   Christoph Riplinger    : Optimizer, TS searches, QM/MM, DLPNO-CCSD(T), (RO)-DLPNO pert. Triples
   Tobias Risthaus        : Range-separated hybrids, TD-DFT gradient, RPA, STAB
   Michael Roemelt        : Original ROCIS implementation
   Masaaki Saitow         : Open-shell DLPNO-CCSD energy and density
   Barbara Sandhoefer     : DKH picture change effects
   Avijit Sen             : IP-ROCIS
   Kantharuban Sivalingam : CASSCF convergence, NEVPT2, FIC-MRCI
   Bernardo de Souza      : ESD, SOC TD-DFT
   Georgi Stoychev        : AutoAux, RI-MP2 NMR
   Willem Van den Heuvel  : Paramagnetic NMR
   Boris Wezisla          : Elementary symmetry handling
   Frank Wennmohs         : Technical directorship


 We gratefully acknowledge several colleagues who have allowed us to
 interface, adapt or use parts of their codes:
   Stefan Grimme, W. Hujo, H. Kruse,             : VdW corrections, initial TS optimization,
                  C. Bannwarth                     DFT functionals, gCP, sTDA/sTD-DF
   Ed Valeev, F. Pavosevic, A. Kumar             : LibInt (2-el integral package), F12 methods
   Garnet Chan, S. Sharma, J. Yang, R. Olivares  : DMRG
   Ulf Ekstrom                                   : XCFun DFT Library
   Mihaly Kallay                                 : mrcc  (arbitrary order and MRCC methods)
   Andreas Klamt, Michael Diedenhofen            : otool_cosmo (COSMO solvation model)
   Jiri Pittner, Ondrej Demel                    : Mk-CCSD
   Frank Weinhold                                : gennbo (NPA and NBO analysis)
   Christopher J. Cramer and Donald G. Truhlar   : smd solvation model
   Lars Goerigk                                  : TD-DFT with DH, B97 family of functionals
   V. Asgeirsson, H. Jonsson                     : NEB implementation
   FAccTs GmbH                                   : IRC, NEB, NEB-TS, Multilevel, MM, QM/MM, CI optimization
   S Lehtola, MJT Oliveira, MAL Marques          : LibXC Library


 Your calculation uses the libint2 library for the computation of 2-el integrals
 For citations please refer to: http://libint.valeyev.net

 Your ORCA version has been built with support for libXC version: 4.2.3
 For citations please refer to: https://tddft.org/programs/libxc/

 This ORCA versions uses:
   CBLAS   interface :  Fast vector & matrix operations
   LAPACKE interface :  Fast linear algebra routines
   SCALAPACK package :  Parallel linear algebra routines


Your calculation utilizes the atom-pairwise dispersion correction
with the Becke-Johnson damping scheme (D3BJ)
Cite in your paper:
S.Grimme, S.Ehrlich, L.Goerigk, J Comput Chem, (2011), 32, 1456–1465 
S.Grimme, J.Antony, S.Ehrlich and H.Krieg, J.Chem.Phys., 132, (2010), 154104 
   

----- Orbital basis set information -----
Your calculation utilizes the basis: def2-TZVPPD
   F. Weigend and R. Ahlrichs, Phys. Chem. Chem. Phys. 7, 3297 (2005).
   D. Rappoport and F. Furche, J. Chem. Phys. 133 134105 (2010).

----- AuxC basis set information -----
Your calculation utilizes the auxiliary basis: def2-TZVPPD/C
   A. Hellweg, C. Hattig, S. Hofener and W. Klopper, Theor. Chem. Acc. 117, 587 (2007).

----- AuxJK basis set information -----
Your calculation utilizes the auxiliary basis: def2/JK
   H-Ba, Hf-Rn: F. Weigend, J. Comput. Chem. 29, 167 (2008).

cite the ECPs for Au [Def2-ECP] as follows:
Ce-Yb(ecp-28): M. Dolg, H. Stoll, H.Preuss, J. Chem. Phys., 1989, 90, 1730-1734.
Y-Cd(ecp-28), Hf-Hg(ecp-46): D. Andrae,U. Haeussermann, M. Dolg, H. Stoll, H. Preuss, Theor. Chim. Acta, 1990, 77, 123-141.
In-Sb(ecp-28), Tl-Bi(ecp-46): B. Metz, H. Stoll, M. Dolg, J. Chem. Phys., 2000, 113, 2563-2569.
Te-Xe(ecp-28), Po-Rn(ecp-46): K. A. Peterson, D. Figgen, E. Goll, H. Stoll, M. Dolg, J. Chem. Phys., 2003, 119, 11113-11123.
Rb(ecp-28), Cs(ecp-46): T. Leininger, A. Nicklass, W. Kuechle, H. Stoll, M. Dolg, A. Bergner, Chem. Phys. Lett., 1996, 255, 274-280.
Sr(ecp-28), Ba(ecp-46): M. Kaupp, P. V. Schleyer, H. Stoll and H. Preuss, J. Chem. Phys., 1991, 94, 1360-1366.
La(ecp-46): M. Dolg, H. Stoll, A. Savin, H. Preuss, Theor. Chim. Acta, 1989, 75, 173-194.
Lu(ecp-28): X. Cao, M. Dolg, J. Chem. Phys., 2001, 115, 7348-7355.

ECP parameters for Au [Def2-ECP] have been obtained from:
TURBOMOLE (7.0.2)

================================================================================
                                        WARNINGS
                       Please study these warnings very carefully!
================================================================================


WARNING: No MP2 level density has been requested!
         To caclulate MP2 level properties use
         %mp2 Density relaxed end
         or
         %mp2 Density unrelaxed end
         Otherwise for double-hybrid DFT only the energy is correct!

WARNING: There are different parametrizations of Gershom Martin's DSD-DFs
         for use with and without D3(BJ)!
         You are using the D3(BJ) parametrized version,
         consistent with the 2013 article (S. Kozuch and J. M. L. Martin, JCC 2013, 34, 2327)

WARNING: The frozen-core approximation is turned on by default for 
         the MP2 part of double-hybrid DFT.

INFO   : the flag for use of LIBINT has been found!

================================================================================
                                       INPUT FILE
================================================================================
NAME = TMB29_T1.in
|  1> #
|  2> # TMB29_T1 ri-DSD-BLYP/2013-D3BJ/Def2-TZVPPD
|  3> #
|  4> ! rijk ri-dsd-blyp/2013 d3bj def2-tzvppd def2/jk def2-tzvppd/c grid4 nofinalgrid
|  5> 
|  6> *xyz 1 1
|  7> C        0.302195   -1.452011   -0.105192 
|  8> C        1.172851   -0.582511    0.135564 
|  9> C        0.213900   -2.914548   -0.330337 
| 10> H        1.214756   -3.345744   -0.317276 
| 11> H       -0.388020   -3.382295    0.449588 
| 12> H       -0.265099   -3.130327   -1.285361 
| 13> C        1.829635    0.694580    0.494281 
| 14> O        3.171960    0.697894   -0.020842 
| 15> C        3.732653   -0.510299   -0.087290 
| 16> O        3.070225   -1.500320    0.142290 
| 17> C        1.080449    1.884401   -0.190647 
| 18> O        0.030957    2.232541    0.278513 
| 19> C        1.716450    2.521139   -1.379228 
| 20> H        1.946637    1.771224   -2.139595 
| 21> H        1.044796    3.276244   -1.779459 
| 22> H        2.667103    2.978996   -1.097340 
| 23> C        5.172060   -0.490501   -0.447138 
| 24> H        5.507658   -1.496958   -0.678577 
| 25> H        5.341426    0.179166   -1.290238 
| 26> H        5.741456   -0.101237    0.400021 
| 27> C        1.875471    0.903584    2.001010 
| 28> H        2.434564    1.811885    2.227294 
| 29> H        0.861108    1.010944    2.380408 
| 30> H        2.353249    0.052039    2.484190 
| 31> Au      -1.471331   -0.309724   -0.041930 
| 32> P       -3.515153    0.680562    0.009165 
| 33> H       -3.799713    1.607377   -1.007127 
| 34> H       -4.633094   -0.165367   -0.073799 
| 35> H       -3.823490    1.429925    1.156436 
| 36> *
| 37> 
| 38> %maxcore 5000
| 39> 
| 40> %pal
| 41> nprocs = 24
| 42> end
| 43> 
| 44> 
| 45>                          ****END OF INPUT****
================================================================================

                       ****************************
                       * Single Point Calculation *
                       ****************************

---------------------------------
CARTESIAN COORDINATES (ANGSTROEM)
---------------------------------
  C      0.302195   -1.452011   -0.105192
  C      1.172851   -0.582511    0.135564
  C      0.213900   -2.914548   -0.330337
  H      1.214756   -3.345744   -0.317276
  H     -0.388020   -3.382295    0.449588
  H     -0.265099   -3.130327   -1.285361
  C      1.829635    0.694580    0.494281
  O      3.171960    0.697894   -0.020842
  C      3.732653   -0.510299   -0.087290
  O      3.070225   -1.500320    0.142290
  C      1.080449    1.884401   -0.190647
  O      0.030957    2.232541    0.278513
  C      1.716450    2.521139   -1.379228
  H      1.946637    1.771224   -2.139595
  H      1.044796    3.276244   -1.779459
  H      2.667103    2.978996   -1.097340
  C      5.172060   -0.490501   -0.447138
  H      5.507658   -1.496958   -0.678577
  H      5.341426    0.179166   -1.290238
  H      5.741456   -0.101237    0.400021
  C      1.875471    0.903584    2.001010
  H      2.434564    1.811885    2.227294
  H      0.861108    1.010944    2.380408
  H      2.353249    0.052039    2.484190
  Au    -1.471331   -0.309724   -0.041930
  P     -3.515153    0.680562    0.009165
  H     -3.799713    1.607377   -1.007127
  H     -4.633094   -0.165367   -0.073799
  H     -3.823490    1.429925    1.156436

----------------------------
CARTESIAN COORDINATES (A.U.)
----------------------------
  NO LB      ZA    FRAG     MASS         X           Y           Z
   0 C     6.0000    0    12.011    0.571066   -2.743903   -0.198784
   1 C     6.0000    0    12.011    2.216367   -1.100786    0.256179
   2 C     6.0000    0    12.011    0.404212   -5.507698   -0.624246
   3 H     1.0000    0     1.008    2.295556   -6.322540   -0.599565
   4 H     1.0000    0     1.008   -0.733252   -6.391611    0.849598
   5 H     1.0000    0     1.008   -0.500965   -5.915461   -2.428980
   6 C     6.0000    0    12.011    3.457509    1.312566    0.934056
   7 O     8.0000    0    15.999    5.994136    1.318829   -0.039386
   8 C     6.0000    0    12.011    7.053692   -0.964325   -0.164954
   9 O     8.0000    0    15.999    5.801884   -2.835194    0.268889
  10 C     6.0000    0    12.011    2.041753    3.561002   -0.360271
  11 O     8.0000    0    15.999    0.058500    4.218891    0.526313
  12 C     6.0000    0    12.011    3.243620    4.764262   -2.606363
  13 H     1.0000    0     1.008    3.678611    3.347128   -4.043249
  14 H     1.0000    0     1.008    1.974378    6.191204   -3.362690
  15 H     1.0000    0     1.008    5.040094    5.629487   -2.073672
  16 C     6.0000    0    12.011    9.773777   -0.926913   -0.844968
  17 H     1.0000    0     1.008   10.407965   -2.828841   -1.282325
  18 H     1.0000    0     1.008   10.093832    0.338575   -2.438196
  19 H     1.0000    0     1.008   10.849779   -0.191310    0.755930
  20 C     6.0000    0    12.011    3.544127    1.707526    3.781361
  21 H     1.0000    0     1.008    4.600659    3.423966    4.208976
  22 H     1.0000    0     1.008    1.627258    1.910407    4.498319
  23 H     1.0000    0     1.008    4.446996    0.098339    4.694439
  24 Au   19.0000*   0   196.966   -2.780413   -0.585294   -0.079236
  25 P    15.0000    0    30.974   -6.642676    1.286076    0.017319
  26 H     1.0000    0     1.008   -7.180417    3.037502   -1.903194
  27 H     1.0000    0     1.008   -8.755279   -0.312498   -0.139460
  28 H     1.0000    0     1.008   -7.225349    2.702167    2.185347
* core charge reduced due to ECP

--------------------------------
INTERNAL COORDINATES (ANGSTROEM)
--------------------------------
 C      0   0   0     0.000000000000     0.00000000     0.00000000
 C      1   0   0     1.253808427102     0.00000000     0.00000000
 C      1   2   0     1.482396962497   139.00097393     0.00000000
 H      3   1   2     1.089868484209   109.50092642   357.00292483
 H      3   1   2     1.090586057143   110.32884093   117.19761608
 H      3   1   2     1.089986907911   110.76652575   235.99172996
 C      2   1   3     1.480204219365   162.35995816   190.89274753
 O      7   2   1     1.437775745153   109.23341235   200.96347184
 C      8   7   2     1.333612500767   114.09704630   329.37172948
 O      9   8   7     1.213119702266   120.02236199     7.41615220
 C      7   2   1     1.563994897633   109.73614328   317.69849477
 O     11   7   2     1.201143631405   117.90356884    76.01696176
 C     11   7   2     1.490857922877   118.01529358   255.64963101
 H     13  11   7     1.092481824509   110.58499397    54.19639245
 H     13  11   7     1.086962515500   109.06556554   175.94916979
 H     13  11   7     1.092169860142   110.15747824   296.74249284
 C      9   8   7     1.483837947876   114.06911022   187.65389595
 H     17   9   8     1.085884764224   109.82337738   191.42200465
 H     17   9   8     1.089934100230   110.27501485   313.91822715
 H     17   9   8     1.092436102384   108.80219067    71.53430249
 C      7   2   1     1.521846211137   111.82606944    80.16724023
 H     21   7   2     1.090321116876   109.59261985   175.51942332
 H     21   7   2     1.088302029665   109.30685440   294.75731039
 H     21   7   2     1.089432704075   110.18002932    54.93648296
 Au     1   2   3     2.110501396277   101.67950911   176.51125999
 P     25   1   2     2.271670184799   173.05592211   188.22990476
 H     26  25   1     1.404567501792   116.97824767   239.07176733
 H     26  25   1     1.404375654096   116.89051683   359.17332928
 H     26  25   1     1.404580848075   116.64428302   119.09984752

---------------------------
INTERNAL COORDINATES (A.U.)
---------------------------
 C      0   0   0     0.000000000000     0.00000000     0.00000000
 C      1   0   0     2.369354551625     0.00000000     0.00000000
 C      1   2   0     2.801324280875   139.00097393     0.00000000
 H      3   1   2     2.059552957148   109.50092642   357.00292483
 H      3   1   2     2.060908973473   110.32884093   117.19761608
 H      3   1   2     2.059776745512   110.76652575   235.99172996
 C      2   1   3     2.797180596875   162.35995816   190.89274753
 O      7   2   1     2.717002400334   109.23341235   200.96347184
 C      8   7   2     2.520162395223   114.09704630   329.37172948
 O      9   8   7     2.292464004946   120.02236199     7.41615220
 C      7   2   1     2.955522031376   109.73614328   317.69849477
 O     11   7   2     2.269832510858   117.90356884    76.01696176
 C     11   7   2     2.817313178825   118.01529358   255.64963101
 H     13  11   7     2.064491454609   110.58499397    54.19639245
 H     13  11   7     2.054061472133   109.06556554   175.94916979
 H     13  11   7     2.063901927391   110.15747824   296.74249284
 C      9   8   7     2.804047348605   114.06911022   187.65389595
 H     17   9   8     2.052024817381   109.82337738   191.42200465
 H     17   9   8     2.059676953457   110.27501485   313.91822715
 H     17   9   8     2.064405052315   108.80219067    71.53430249
 C      7   2   1     2.875872556995   111.82606944    80.16724023
 H     21   7   2     2.060408308927   109.59261985   175.51942332
 H     21   7   2     2.056592787058   109.30685440   294.75731039
 H     21   7   2     2.058729452040   110.18002932    54.93648296
 Au     1   2   3     3.988269644223   101.67950911   176.51125999
 P     25   1   2     4.292834515865   173.05592211   188.22990476
 H     26  25   1     2.654247914992   116.97824767   239.07176733
 H     26  25   1     2.653885375388   116.89051683   359.17332928
 H     26  25   1     2.654273135813   116.64428302   119.09984752

---------------------
BASIS SET INFORMATION
---------------------
There are 5 groups of distinct atoms

 Group   1 Type C   : 12s6p3d1f contracted to 6s3p3d1f pattern {621111/411/111/1}
 Group   2 Type H   : 5s3p1d contracted to 3s3p1d pattern {311/111/1}
 Group   3 Type O   : 12s7p3d1f contracted to 6s4p3d1f pattern {621111/4111/111/1}
 Group   4 Type Au  : 8s8p6d2f1g contracted to 6s5p3d2f1g pattern {311111/41111/411/11/1}
 Group   5 Type P   : 15s9p4d1f contracted to 6s5p4d1f pattern {732111/51111/1111/1}

Atom   0C    basis set group =>   1
Atom   1C    basis set group =>   1
Atom   2C    basis set group =>   1
Atom   3H    basis set group =>   2
Atom   4H    basis set group =>   2
Atom   5H    basis set group =>   2
Atom   6C    basis set group =>   1
Atom   7O    basis set group =>   3
Atom   8C    basis set group =>   1
Atom   9O    basis set group =>   3
Atom  10C    basis set group =>   1
Atom  11O    basis set group =>   3
Atom  12C    basis set group =>   1
Atom  13H    basis set group =>   2
Atom  14H    basis set group =>   2
Atom  15H    basis set group =>   2
Atom  16C    basis set group =>   1
Atom  17H    basis set group =>   2
Atom  18H    basis set group =>   2
Atom  19H    basis set group =>   2
Atom  20C    basis set group =>   1
Atom  21H    basis set group =>   2
Atom  22H    basis set group =>   2
Atom  23H    basis set group =>   2
Atom  24Au   basis set group =>   4
Atom  25P    basis set group =>   5
Atom  26H    basis set group =>   2
Atom  27H    basis set group =>   2
Atom  28H    basis set group =>   2
---------------------------------
AUXILIARY/C BASIS SET INFORMATION
---------------------------------
There are 5 groups of distinct atoms

 Group   1 Type C   : 9s7p6d4f1g contracted to 9s7p5d4f1g pattern {111111111/1111111/21111/1111/1}
 Group   2 Type H   : 5s4p3d1f contracted to 5s4p3d1f pattern {11111/1111/111/1}
 Group   3 Type O   : 9s7p6d4f1g contracted to 9s7p5d4f1g pattern {111111111/1111111/21111/1111/1}
 Group   4 Type Au  : 9s9p8d5f4g3h1i contracted to 9s9p8d5f4g3h1i pattern {111111111/111111111/11111111/11111/1111/111/1}
 Group   5 Type P   : 12s9p8d6f2g contracted to 12s9p8d6f2g pattern {111111111111/111111111/11111111/111111/11}

Atom   0C    basis set group =>   1
Atom   1C    basis set group =>   1
Atom   2C    basis set group =>   1
Atom   3H    basis set group =>   2
Atom   4H    basis set group =>   2
Atom   5H    basis set group =>   2
Atom   6C    basis set group =>   1
Atom   7O    basis set group =>   3
Atom   8C    basis set group =>   1
Atom   9O    basis set group =>   3
Atom  10C    basis set group =>   1
Atom  11O    basis set group =>   3
Atom  12C    basis set group =>   1
Atom  13H    basis set group =>   2
Atom  14H    basis set group =>   2
Atom  15H    basis set group =>   2
Atom  16C    basis set group =>   1
Atom  17H    basis set group =>   2
Atom  18H    basis set group =>   2
Atom  19H    basis set group =>   2
Atom  20C    basis set group =>   1
Atom  21H    basis set group =>   2
Atom  22H    basis set group =>   2
Atom  23H    basis set group =>   2
Atom  24Au   basis set group =>   4
Atom  25P    basis set group =>   5
Atom  26H    basis set group =>   2
Atom  27H    basis set group =>   2
Atom  28H    basis set group =>   2
----------------------------------
AUXILIARY/JK BASIS SET INFORMATION
----------------------------------
There are 5 groups of distinct atoms

 Group   1 Type C   : 14s10p6d2f1g contracted to 10s8p5d1f1g pattern {5111111111/31111111/21111/2/1}
 Group   2 Type H   : 4s2p2d contracted to 2s2p2d pattern {31/11/11}
 Group   3 Type O   : 14s10p6d2f1g contracted to 10s8p4d2f1g pattern {5111111111/31111111/3111/11/1}
 Group   4 Type Au  : 13s12p11d9f5g3h2i contracted to 13s11p10d8f4g3h2i pattern {1111111111111/21111111111/2111111111/21111111/2111/111/11}
 Group   5 Type P   : 16s12p10d4f1g contracted to 13s11p9d4f1g pattern {4111111111111/21111111111/211111111/1111/1}

Atom   0C    basis set group =>   1
Atom   1C    basis set group =>   1
Atom   2C    basis set group =>   1
Atom   3H    basis set group =>   2
Atom   4H    basis set group =>   2
Atom   5H    basis set group =>   2
Atom   6C    basis set group =>   1
Atom   7O    basis set group =>   3
Atom   8C    basis set group =>   1
Atom   9O    basis set group =>   3
Atom  10C    basis set group =>   1
Atom  11O    basis set group =>   3
Atom  12C    basis set group =>   1
Atom  13H    basis set group =>   2
Atom  14H    basis set group =>   2
Atom  15H    basis set group =>   2
Atom  16C    basis set group =>   1
Atom  17H    basis set group =>   2
Atom  18H    basis set group =>   2
Atom  19H    basis set group =>   2
Atom  20C    basis set group =>   1
Atom  21H    basis set group =>   2
Atom  22H    basis set group =>   2
Atom  23H    basis set group =>   2
Atom  24Au   basis set group =>   4
Atom  25P    basis set group =>   5
Atom  26H    basis set group =>   2
Atom  27H    basis set group =>   2
Atom  28H    basis set group =>   2
-------------------------
ECP PARAMETER INFORMATION
-------------------------

 Group 1, Type Au ECP Def2-ECP (replacing 60 core electrons, lmax=3)

Atom  24Au   ECP group =>   1



           ************************************************************
           *        Program running with 24 parallel MPI-processes    *
           *              working on a common directory               *
           ************************************************************
------------------------------------------------------------------------------
                           ORCA GTO INTEGRAL CALCULATION
                           -- RI-GTO INTEGRALS CHOSEN --
------------------------------------------------------------------------------

                         BASIS SET STATISTICS AND STARTUP INFO

Gaussian basis set:
 # of primitive gaussian shells          ...  456
 # of primitive gaussian functions       ... 1072
 # of contracted shells                  ...  297
 # of contracted basis functions         ...  815
 Highest angular momentum                ...    4
 Maximum contraction depth               ...    7
Auxiliary gaussian basis set:
 # of primitive gaussian shells          ...  614
 # of primitive gaussian functions       ... 1874
 # of contracted shells                  ...  479
 # of contracted aux-basis functions     ... 1551
 Highest angular momentum                ...    6
 Maximum contraction depth               ...    5
Ratio of auxiliary to basis functions    ...  1.90
Integral package used                  ... LIBINT
 One Electron integrals                  
   ECP integrals                         ... done
 Ordering auxiliary basis shells         ... done
 Integral threshhold             Thresh  ...  1.000e-10
 Primitive cut-off               TCut    ...  1.000e-11
 Pre-screening matrix                    ... done
 Shell pair data                         ... 
 Ordering of the shell pairs             ... done (   0.006 sec) 36192 of 44253 pairs
 Determination of significant pairs      ... done (   0.000 sec)
 Creation of shell pair data             ... done (   0.003 sec)
 Storage of shell pair data              ... done (   0.003 sec)
 Shell pair data done in (   0.013 sec)
 Computing two index integrals           ... done
 Cholesky decomposition of the V-matrix  ... done


Timings:
 Total evaluation time                   ...   3.079 sec (  0.051 min)
 One electron matrix time                ...   2.440 sec (  0.041 min) = 79.3%
 Schwartz matrix evaluation time         ...   0.366 sec (  0.006 min) = 11.9%
 Two index repulsion integral time       ...   0.122 sec (  0.002 min) =  3.9%
 Cholesky decomposition of V             ...   0.108 sec (  0.002 min) =  3.5%
 Three index repulsion integral time     ...   0.000 sec (  0.000 min) =  0.0%



           ************************************************************
           *        Program running with 24 parallel MPI-processes    *
           *              working on a common directory               *
           ************************************************************
-------------------------------------------------------------------------------
                                 ORCA SCF
-------------------------------------------------------------------------------

------------
SCF SETTINGS
------------
Hamiltonian:
 Density Functional     Method          .... DFT(GTOs)
 Exchange Functional    Exchange        .... B88
   X-Alpha parameter    XAlpha          ....  0.666667
   Becke's b parameter  XBeta           ....  0.004200
 Correlation Functional Correlation     .... LYP
 LDA part of GGA corr.  LDAOpt          .... VWN-5
 Gradients option       PostSCFGGA      .... off
 Hybrid DFT is turned on
   Fraction HF Exchange ScalHFX         ....  0.710000
   Scaling of DF-GGA-X  ScalDFX         ....  0.290000
   Scaling of DF-GGA-C  ScalDFC         ....  0.540000
   Scaling of DF-LDA-C  ScalLDAC        ....  0.540000
   Perturbative correction              ....  1.000000
   Density functional embedding theory  .... OFF
 RI-approximation to the Coulomb term is turned on
   Number of auxiliary basis functions  .... 1551
   RI-JK (J+K treated both via RI)      .... on


General Settings:
 Integral files         IntName         .... TMB29_T1
 Hartree-Fock type      HFTyp           .... RHF
 Total Charge           Charge          ....    1
 Multiplicity           Mult            ....    1
 Number of Electrons    NEL             ....  126
 Basis Dimension        Dim             ....  815
 Nuclear Repulsion      ENuc            ....   1205.6353180124 Eh

Convergence Acceleration:
 DIIS                   CNVDIIS         .... on
   Start iteration      DIISMaxIt       ....    12
   Startup error        DIISStart       ....  0.200000
   # of expansion vecs  DIISMaxEq       ....     5
   Bias factor          DIISBfac        ....   1.050
   Max. coefficient     DIISMaxC        ....  10.000
 Newton-Raphson         CNVNR           .... off
 SOSCF                  CNVSOSCF        .... off
 Level Shifting         CNVShift        .... on
   Level shift para.    LevelShift      ....    0.2500
   Turn off err/grad.   ShiftErr        ....    0.0010
 Zerner damping         CNVZerner       .... off
 Static damping         CNVDamp         .... on
   Fraction old density DampFac         ....    0.7000
   Max. Damping (<1)    DampMax         ....    0.9800
   Min. Damping (>=0)   DampMin         ....    0.0000
   Turn off err/grad.   DampErr         ....    0.1000
 Fernandez-Rico         CNVRico         .... off

SCF Procedure:
 Maximum # iterations   MaxIter         ....   125
 SCF integral mode      SCFMode         .... Direct
   Integral package                     .... LIBINT
 Reset frequency        DirectResetFreq ....    20
 Integral Threshold     Thresh          ....  1.000e-10 Eh
 Primitive CutOff       TCut            ....  1.000e-11 Eh

Convergence Tolerance:
 Convergence Check Mode ConvCheckMode   .... Total+1el-Energy
 Convergence forced     ConvForced      .... 0
 Energy Change          TolE            ....  1.000e-06 Eh
 1-El. energy change                    ....  1.000e-03 Eh
 DIIS Error             TolErr          ....  1.000e-06


Diagonalization of the overlap matrix:
Smallest eigenvalue                        ... 3.384e-07
Time for diagonalization                   ...    0.132 sec
Threshold for overlap eigenvalues          ... 1.000e-08
Number of eigenvalues below threshold      ... 0
Time for construction of square roots      ...    0.100 sec
Total time needed                          ...    0.235 sec

-------------------
DFT GRID GENERATION
-------------------

General Integration Accuracy     IntAcc      ...  4.670
Radial Grid Type                 RadialGrid  ... Gauss-Chebyshev
Angular Grid (max. acc.)         AngularGrid ... Lebedev-302
Angular grid pruning method      GridPruning ... 3 (G Style)
Weight generation scheme         WeightScheme... Becke
Basis function cutoff            BFCut       ...    1.0000e-10
Integration weight cutoff        WCut        ...    1.0000e-14
Grids for H and He will be reduced by one unit

# of grid points (after initial pruning)     ... 143952 (   0.0 sec)
# of grid points (after weights+screening)   ... 128143 (   0.1 sec)
nearest neighbour list constructed           ...    0.0 sec
Grid point re-assignment to atoms done       ...    0.0 sec
Grid point division into batches done        ...    0.4 sec
Reduced shell lists constructed in    0.9 sec

Total number of grid points                  ...   128143
Total number of batches                      ...     2016
Average number of points per batch           ...       63
Average number of grid points per atom       ...     4419
Average number of shells per batch           ...   184.31 (62.06%)
Average number of basis functions per batch  ...   509.01 (62.46%)
Average number of large shells per batch     ...   143.99 (78.12%)
Average number of large basis fcns per batch ...   396.25 (77.85%)
Average number of aux-shells per batch       ...   184.31 (38.48%)
Average number of aux functions per batch    ...   509.01 (32.82%)
Maximum spatial batch extension              ...   2.81,  2.92,  4.01 au
Average spatial batch extension              ...   0.05,  0.05,  0.06 au

Time for grid setup =    1.030 sec

------------------------------
INITIAL GUESS: MODEL POTENTIAL
------------------------------
Loading Hartree-Fock densities                     ... done
  calling /sw/apps/orca/orca_4_2_0_linux_x86-64_openmpi314/orca TMB29_T1_atom79.inp > TMB29_T1_atom79.out in order to generate an atomic fitting density for atom 24 (Au with ECP) on-the-fly... 
    atom 24 (Au), assumed electronic state with S=2: 1s2 2s2 2p6 3s2 3p6 4s2 3d10 4p6 5s2 4d10 5p6 6s1 4f14 5d10           ... done
Calculating cut-offs                               ... done
Setting up the integral package                    ... done
Initializing the effective Hamiltonian             ... done
Starting the Coulomb interaction                   ... done (   0.1 sec)
Reading the grid                                   ... done
Mapping shells                                     ... done
Starting the XC term evaluation                    ... done (   0.3 sec)
  promolecular density results
     # of electrons  =    186.994240953
     EX              =   -465.363593416
     EC              =     -0.967322454
     EX+EC           =   -466.330915871
Transforming the Hamiltonian                       ... done (   0.1 sec)
Diagonalizing the Hamiltonian                      ... done (   0.1 sec)
Back transforming the eigenvectors                 ... done (   0.0 sec)
Now organizing SCF variables                       ... done
                      ------------------
                      INITIAL GUESS DONE (   2.9 sec)
                      ------------------
--------------
SCF ITERATIONS
--------------
ITER       Energy         Delta-E        Max-DP      RMS-DP      [F,P]     Damp
  0  -1051.6020559223   0.000000000000 5.56342426  0.01416306  0.5358239 0.7000
  1  -1051.4000852631   0.201970659203 4.05899619  0.01049959  0.3942882 0.7000
  2  -1051.5360562654  -0.135971002339 2.76546285  0.00713663  0.2731511 0.7000
                               ***Turning on DIIS***
  3  -1051.7776650750  -0.241608809617 1.89569105  0.00465352  0.1886595 0.7000
  4  -1051.9862020348  -0.208536959795 1.26900531  0.00299401  0.1308121 0.7000
  5  -1052.0987521081  -0.112550073273 2.41693079  0.00598688  0.0908243 0.0000
  6  -1052.1507689951  -0.052016887048 0.14081632  0.00048704  0.0192605 0.0000
  7  -1052.1527020329  -0.001933037792 0.21858893  0.00048433  0.0060663 0.0000
  8  -1052.1528866987  -0.000184665808 0.32538916  0.00069334  0.0040306 0.0000
  9  -1052.1529806887  -0.000093990016 0.05858356  0.00018027  0.0018591 0.0000
 10  -1052.1530081933  -0.000027504530 0.18354823  0.00044949  0.0010419 0.0000
 11  -1052.1530128309  -0.000004637601 0.13930815  0.00039728  0.0002564 0.0000
 12  -1052.1530141247  -0.000001293775 0.08199714  0.00022711  0.0001900 0.0000
                 **** Energy Check signals convergence ****

               *****************************************************
               *                     SUCCESS                       *
               *           SCF CONVERGED AFTER  13 CYCLES          *
               *****************************************************


----------------
TOTAL SCF ENERGY
----------------

Total Energy       :        -1052.15301430 Eh          -28630.53907 eV

Components:
Nuclear Repulsion  :         1205.63531801 Eh           32807.00488 eV
Electronic Energy  :        -2257.78833231 Eh          -61437.54395 eV
One Electron Energy:        -3875.64876049 Eh         -105461.76435 eV
Two Electron Energy:         1617.86042818 Eh           44024.22040 eV

Virial components:
Potential Energy   :        -2012.99306984 Eh          -54776.32620 eV
Kinetic Energy     :          960.84005554 Eh           26145.78714 eV
Virial Ratio       :            2.09503450


DFT components:
N(Alpha)           :       62.999966685758 electrons
N(Beta)            :       62.999966685758 electrons
N(Total)           :      125.999933371516 electrons
E(X)               :      -32.334287607305 Eh       
E(C)               :       -2.391103137898 Eh       
E(XC)              :      -34.725390745203 Eh       
DFET-embed. en.    :        0.000000000000 Eh       

---------------
SCF CONVERGENCE
---------------

  Last Energy change         ...   -1.7788e-07  Tolerance :   1.0000e-06
  Last MAX-Density change    ...    4.0336e-02  Tolerance :   1.0000e-05
  Last RMS-Density change    ...    9.3886e-05  Tolerance :   1.0000e-06
  Last DIIS Error            ...    8.8843e-05  Tolerance :   1.0000e-06

             **** THE GBW FILE WAS UPDATED (TMB29_T1.gbw) ****
             **** DENSITY FILE WAS UPDATED (TMB29_T1.scfp) ****
             **** ENERGY FILE WAS UPDATED (TMB29_T1.en.tmp) ****
             **** THE GBW FILE WAS UPDATED (TMB29_T1.gbw) ****
             **** DENSITY FILE WAS UPDATED (TMB29_T1.scfp) ****
----------------
ORBITAL ENERGIES
----------------

  NO   OCC          E(Eh)            E(eV) 
   0   2.0000     -79.092232     -2152.2091 
   1   2.0000     -20.248346      -550.9855 
   2   2.0000     -20.192492      -549.4656 
   3   2.0000     -20.183068      -549.2092 
   4   2.0000     -11.148097      -303.3551 
   5   2.0000     -11.104147      -302.1592 
   6   2.0000     -11.100529      -302.0607 
   7   2.0000     -11.065478      -301.1070 
   8   2.0000     -11.016387      -299.7711 
   9   2.0000     -10.986021      -298.9448 
  10   2.0000     -10.985488      -298.9303 
  11   2.0000     -10.979996      -298.7809 
  12   2.0000     -10.979163      -298.7582 
  13   2.0000      -7.331164      -199.4911 
  14   2.0000      -5.322924      -144.8441 
  15   2.0000      -5.322903      -144.8436 
  16   2.0000      -5.321694      -144.8107 
  17   2.0000      -4.671682      -127.1229 
  18   2.0000      -2.764410       -75.2234 
  19   2.0000      -2.750490       -74.8446 
  20   2.0000      -2.750335       -74.8404 
  21   2.0000      -1.508437       -41.0467 
  22   2.0000      -1.423760       -38.7425 
  23   2.0000      -1.395879       -37.9838 
  24   2.0000      -1.164343       -31.6834 
  25   2.0000      -1.104676       -30.0598 
  26   2.0000      -1.054542       -28.6956 
  27   2.0000      -1.050914       -28.5968 
  28   2.0000      -1.002146       -27.2698 
  29   2.0000      -0.959535       -26.1103 
  30   2.0000      -0.950813       -25.8729 
  31   2.0000      -0.884833       -24.0775 
  32   2.0000      -0.848561       -23.0905 
  33   2.0000      -0.788770       -21.4635 
  34   2.0000      -0.770990       -20.9797 
  35   2.0000      -0.753765       -20.5110 
  36   2.0000      -0.727092       -19.7852 
  37   2.0000      -0.709613       -19.3096 
  38   2.0000      -0.700777       -19.0691 
  39   2.0000      -0.694134       -18.8883 
  40   2.0000      -0.679999       -18.5037 
  41   2.0000      -0.665602       -18.1120 
  42   2.0000      -0.663380       -18.0515 
  43   2.0000      -0.657118       -17.8811 
  44   2.0000      -0.655880       -17.8474 
  45   2.0000      -0.649147       -17.6642 
  46   2.0000      -0.647077       -17.6079 
  47   2.0000      -0.641128       -17.4460 
  48   2.0000      -0.635315       -17.2878 
  49   2.0000      -0.621279       -16.9059 
  50   2.0000      -0.617454       -16.8018 
  51   2.0000      -0.609403       -16.5827 
  52   2.0000      -0.593022       -16.1369 
  53   2.0000      -0.580552       -15.7976 
  54   2.0000      -0.574642       -15.6368 
  55   2.0000      -0.566694       -15.4205 
  56   2.0000      -0.562655       -15.3106 
  57   2.0000      -0.560362       -15.2482 
  58   2.0000      -0.556250       -15.1363 
  59   2.0000      -0.515667       -14.0320 
  60   2.0000      -0.501929       -13.6582 
  61   2.0000      -0.478219       -13.0130 
  62   2.0000      -0.471213       -12.8223 
  63   0.0000      -0.114463        -3.1147 
  64   0.0000      -0.091283        -2.4839 
  65   0.0000      -0.075327        -2.0498 
  66   0.0000      -0.065470        -1.7815 
  67   0.0000      -0.058953        -1.6042 
  68   0.0000      -0.046679        -1.2702 
  69   0.0000      -0.036963        -1.0058 
  70   0.0000      -0.035450        -0.9647 
  71   0.0000      -0.034177        -0.9300 
  72   0.0000      -0.030278        -0.8239 
  73   0.0000      -0.023070        -0.6278 
  74   0.0000      -0.018995        -0.5169 
  75   0.0000      -0.014685        -0.3996 
  76   0.0000      -0.011727        -0.3191 
  77   0.0000      -0.003574        -0.0973 
  78   0.0000      -0.000779        -0.0212 
  79   0.0000       0.001177         0.0320 
  80   0.0000       0.006449         0.1755 
  81   0.0000       0.008972         0.2441 
  82   0.0000       0.010303         0.2804 
  83   0.0000       0.017218         0.4685 
  84   0.0000       0.019647         0.5346 
  85   0.0000       0.027060         0.7363 
  86   0.0000       0.030699         0.8354 
  87   0.0000       0.035855         0.9757 
  88   0.0000       0.042800         1.1646 
  89   0.0000       0.054364         1.4793 
  90   0.0000       0.056834         1.5465 
  91   0.0000       0.059255         1.6124 
  92   0.0000       0.064599         1.7578 
  93   0.0000       0.067896         1.8476 
  94   0.0000       0.075297         2.0489 
  95   0.0000       0.075538         2.0555 
  96   0.0000       0.086132         2.3438 
  97   0.0000       0.088956         2.4206 
  98   0.0000       0.094638         2.5752 
  99   0.0000       0.095187         2.5902 
 100   0.0000       0.101823         2.7708 
 101   0.0000       0.106609         2.9010 
 102   0.0000       0.110930         3.0186 
 103   0.0000       0.113310         3.0833 
 104   0.0000       0.116641         3.1740 
 105   0.0000       0.122688         3.3385 
 106   0.0000       0.127437         3.4677 
 107   0.0000       0.138803         3.7770 
 108   0.0000       0.140629         3.8267 
 109   0.0000       0.145868         3.9693 
 110   0.0000       0.150214         4.0875 
 111   0.0000       0.154015         4.1909 
 112   0.0000       0.156918         4.2699 
 113   0.0000       0.157432         4.2839 
 114   0.0000       0.162696         4.4272 
 115   0.0000       0.164771         4.4836 
 116   0.0000       0.167692         4.5631 
 117   0.0000       0.171646         4.6707 
 118   0.0000       0.178635         4.8609 
 119   0.0000       0.179450         4.8831 
 120   0.0000       0.180823         4.9204 
 121   0.0000       0.184400         5.0178 
 122   0.0000       0.186435         5.0732 
 123   0.0000       0.188176         5.1205 
 124   0.0000       0.189756         5.1635 
 125   0.0000       0.195226         5.3124 
 126   0.0000       0.197053         5.3621 
 127   0.0000       0.203615         5.5406 
 128   0.0000       0.205600         5.5947 
 129   0.0000       0.207954         5.6587 
 130   0.0000       0.209377         5.6974 
 131   0.0000       0.212847         5.7919 
 132   0.0000       0.214853         5.8464 
 133   0.0000       0.218055         5.9336 
 134   0.0000       0.224250         6.1022 
 135   0.0000       0.225511         6.1365 
 136   0.0000       0.227562         6.1923 
 137   0.0000       0.231831         6.3084 
 138   0.0000       0.235183         6.3997 
 139   0.0000       0.238547         6.4912 
 140   0.0000       0.239826         6.5260 
 141   0.0000       0.246585         6.7099 
 142   0.0000       0.249769         6.7965 
 143   0.0000       0.252630         6.8744 
 144   0.0000       0.255486         6.9521 
 145   0.0000       0.259729         7.0676 
 146   0.0000       0.261096         7.1048 
 147   0.0000       0.262724         7.1491 
 148   0.0000       0.265721         7.2306 
 149   0.0000       0.269280         7.3275 
 150   0.0000       0.274738         7.4760 
 151   0.0000       0.276751         7.5308 
 152   0.0000       0.283104         7.7037 
 153   0.0000       0.286150         7.7865 
 154   0.0000       0.293465         7.9856 
 155   0.0000       0.295284         8.0351 
 156   0.0000       0.298658         8.1269 
 157   0.0000       0.300268         8.1707 
 158   0.0000       0.306992         8.3537 
 159   0.0000       0.308819         8.4034 
 160   0.0000       0.311613         8.4794 
 161   0.0000       0.312239         8.4965 
 162   0.0000       0.315824         8.5940 
 163   0.0000       0.323103         8.7921 
 164   0.0000       0.326998         8.8981 
 165   0.0000       0.328737         8.9454 
 166   0.0000       0.334931         9.1139 
 167   0.0000       0.337332         9.1793 
 168   0.0000       0.339722         9.2443 
 169   0.0000       0.340218         9.2578 
 170   0.0000       0.347150         9.4464 
 171   0.0000       0.353162         9.6100 
 172   0.0000       0.354138         9.6366 
 173   0.0000       0.356951         9.7131 
 174   0.0000       0.359561         9.7842 
 175   0.0000       0.361816         9.8455 
 176   0.0000       0.365631         9.9493 
 177   0.0000       0.368979        10.0404 
 178   0.0000       0.371883        10.1195 
 179   0.0000       0.374826        10.1995 
 180   0.0000       0.378609        10.3025 
 181   0.0000       0.384284        10.4569 
 182   0.0000       0.386782        10.5249 
 183   0.0000       0.392648        10.6845 
 184   0.0000       0.394123        10.7246 
 185   0.0000       0.400901        10.9091 
 186   0.0000       0.403438        10.9781 
 187   0.0000       0.405870        11.0443 
 188   0.0000       0.411878        11.2078 
 189   0.0000       0.421665        11.4741 
 190   0.0000       0.425531        11.5793 
 191   0.0000       0.429159        11.6780 
 192   0.0000       0.429489        11.6870 
 193   0.0000       0.432792        11.7769 
 194   0.0000       0.434403        11.8207 
 195   0.0000       0.440499        11.9866 
 196   0.0000       0.444949        12.1077 
 197   0.0000       0.448160        12.1951 
 198   0.0000       0.448420        12.2021 
 199   0.0000       0.452154        12.3037 
 200   0.0000       0.454968        12.3803 
 201   0.0000       0.463621        12.6158 
 202   0.0000       0.465539        12.6680 
 203   0.0000       0.468308        12.7433 
 204   0.0000       0.478800        13.0288 
 205   0.0000       0.481411        13.0999 
 206   0.0000       0.483524        13.1574 
 207   0.0000       0.489583        13.3222 
 208   0.0000       0.491664        13.3789 
 209   0.0000       0.494078        13.4446 
 210   0.0000       0.500531        13.6201 
 211   0.0000       0.501903        13.6575 
 212   0.0000       0.507157        13.8004 
 213   0.0000       0.510159        13.8821 
 214   0.0000       0.514122        13.9900 
 215   0.0000       0.523226        14.2377 
 216   0.0000       0.525365        14.2959 
 217   0.0000       0.529509        14.4087 
 218   0.0000       0.535963        14.5843 
 219   0.0000       0.541534        14.7359 
 220   0.0000       0.545650        14.8479 
 221   0.0000       0.550032        14.9671 
 222   0.0000       0.555824        15.1247 
 223   0.0000       0.559432        15.2229 
 224   0.0000       0.565192        15.3796 
 225   0.0000       0.567720        15.4484 
 226   0.0000       0.574594        15.6355 
 227   0.0000       0.579662        15.7734 
 228   0.0000       0.588241        16.0069 
 229   0.0000       0.590007        16.0549 
 230   0.0000       0.598537        16.2870 
 231   0.0000       0.598849        16.2955 
 232   0.0000       0.609327        16.5806 
 233   0.0000       0.612838        16.6762 
 234   0.0000       0.616684        16.7808 
 235   0.0000       0.624361        16.9897 
 236   0.0000       0.626634        17.0516 
 237   0.0000       0.631410        17.1815 
 238   0.0000       0.636730        17.3263 
 239   0.0000       0.640230        17.4216 
 240   0.0000       0.651911        17.7394 
 241   0.0000       0.652980        17.7685 
 242   0.0000       0.657436        17.8897 
 243   0.0000       0.660898        17.9839 
 244   0.0000       0.664393        18.0791 
 245   0.0000       0.667653        18.1677 
 246   0.0000       0.672801        18.3078 
 247   0.0000       0.681838        18.5538 
 248   0.0000       0.685533        18.6543 
 249   0.0000       0.691502        18.8167 
 250   0.0000       0.693136        18.8612 
 251   0.0000       0.696610        18.9557 
 252   0.0000       0.701870        19.0989 
 253   0.0000       0.705765        19.2048 
 254   0.0000       0.706032        19.2121 
 255   0.0000       0.710865        19.3436 
 256   0.0000       0.715080        19.4583 
 257   0.0000       0.718069        19.5397 
 258   0.0000       0.722546        19.6615 
 259   0.0000       0.725920        19.7533 
 260   0.0000       0.732010        19.9190 
 261   0.0000       0.737707        20.0740 
 262   0.0000       0.744402        20.2562 
 263   0.0000       0.746242        20.3063 
 264   0.0000       0.750757        20.4291 
 265   0.0000       0.755459        20.5571 
 266   0.0000       0.763087        20.7646 
 267   0.0000       0.764408        20.8006 
 268   0.0000       0.766601        20.8603 
 269   0.0000       0.771751        21.0004 
 270   0.0000       0.782035        21.2803 
 271   0.0000       0.788842        21.4655 
 272   0.0000       0.791664        21.5423 
 273   0.0000       0.798359        21.7245 
 274   0.0000       0.801248        21.8031 
 275   0.0000       0.806420        21.9438 
 276   0.0000       0.811294        22.0764 
 277   0.0000       0.823805        22.4169 
 278   0.0000       0.824336        22.4313 
 279   0.0000       0.829320        22.5670 
 280   0.0000       0.837174        22.7807 
 281   0.0000       0.843803        22.9611 
 282   0.0000       0.845483        23.0068 
 283   0.0000       0.852530        23.1985 
 284   0.0000       0.855783        23.2870 
 285   0.0000       0.857423        23.3317 
 286   0.0000       0.861753        23.4495 
 287   0.0000       0.871449        23.7133 
 288   0.0000       0.874870        23.8064 
 289   0.0000       0.877270        23.8717 
 290   0.0000       0.888237        24.1702 
 291   0.0000       0.893293        24.3077 
 292   0.0000       0.901016        24.5179 
 293   0.0000       0.906866        24.6771 
 294   0.0000       0.915289        24.9063 
 295   0.0000       0.931547        25.3487 
 296   0.0000       0.937716        25.5166 
 297   0.0000       0.945344        25.7241 
 298   0.0000       0.952304        25.9135 
 299   0.0000       0.963562        26.2199 
 300   0.0000       0.964991        26.2587 
 301   0.0000       0.970407        26.4061 
 302   0.0000       0.980105        26.6700 
 303   0.0000       0.994377        27.0584 
 304   0.0000       1.001546        27.2535 
 305   0.0000       1.005346        27.3569 
 306   0.0000       1.007723        27.4215 
 307   0.0000       1.019473        27.7413 
 308   0.0000       1.026590        27.9349 
 309   0.0000       1.028337        27.9825 
 310   0.0000       1.038300        28.2536 
 311   0.0000       1.047044        28.4915 
 312   0.0000       1.048513        28.5315 
 313   0.0000       1.054856        28.7041 
 314   0.0000       1.064367        28.9629 
 315   0.0000       1.082162        29.4471 
 316   0.0000       1.083716        29.4894 
 317   0.0000       1.089136        29.6369 
 318   0.0000       1.094255        29.7762 
 319   0.0000       1.108982        30.1769 
 320   0.0000       1.113149        30.2903 
 321   0.0000       1.116768        30.3888 
 322   0.0000       1.127163        30.6717 
 323   0.0000       1.141211        31.0539 
 324   0.0000       1.149845        31.2889 
 325   0.0000       1.159547        31.5529 
 326   0.0000       1.165790        31.7228 
 327   0.0000       1.179277        32.0898 
 328   0.0000       1.188376        32.3373 
 329   0.0000       1.192770        32.4569 
 330   0.0000       1.200195        32.6590 
 331   0.0000       1.204467        32.7752 
 332   0.0000       1.211784        32.9743 
 333   0.0000       1.218879        33.1674 
 334   0.0000       1.224065        33.3085 
 335   0.0000       1.230995        33.4971 
 336   0.0000       1.239127        33.7184 
 337   0.0000       1.241031        33.7702 
 338   0.0000       1.246043        33.9066 
 339   0.0000       1.249568        34.0025 
 340   0.0000       1.265554        34.4375 
 341   0.0000       1.271170        34.5903 
 342   0.0000       1.273699        34.6591 
 343   0.0000       1.280529        34.8450 
 344   0.0000       1.284016        34.9398 
 345   0.0000       1.290386        35.1132 
 346   0.0000       1.292773        35.1781 
 347   0.0000       1.308612        35.6091 
 348   0.0000       1.315780        35.8042 
 349   0.0000       1.319671        35.9101 
 350   0.0000       1.325973        36.0816 
 351   0.0000       1.329858        36.1873 
 352   0.0000       1.334621        36.3169 
 353   0.0000       1.339986        36.4629 
 354   0.0000       1.346826        36.6490 
 355   0.0000       1.347409        36.6649 
 356   0.0000       1.356626        36.9157 
 357   0.0000       1.366673        37.1891 
 358   0.0000       1.370142        37.2835 
 359   0.0000       1.381881        37.6029 
 360   0.0000       1.384811        37.6826 
 361   0.0000       1.387984        37.7690 
 362   0.0000       1.394068        37.9345 
 363   0.0000       1.403126        38.1810 
 364   0.0000       1.416096        38.5339 
 365   0.0000       1.425180        38.7811 
 366   0.0000       1.427746        38.8509 
 367   0.0000       1.435072        39.0503 
 368   0.0000       1.442449        39.2510 
 369   0.0000       1.459871        39.7251 
 370   0.0000       1.467087        39.9215 
 371   0.0000       1.486003        40.4362 
 372   0.0000       1.495094        40.6836 
 373   0.0000       1.499936        40.8153 
 374   0.0000       1.507731        41.0275 
 375   0.0000       1.514222        41.2041 
 376   0.0000       1.518695        41.3258 
 377   0.0000       1.523706        41.4621 
 378   0.0000       1.543050        41.9885 
 379   0.0000       1.546954        42.0947 
 380   0.0000       1.547949        42.1218 
 381   0.0000       1.555645        42.3313 
 382   0.0000       1.571080        42.7513 
 383   0.0000       1.590511        43.2800 
 384   0.0000       1.594058        43.3765 
 385   0.0000       1.607741        43.7489 
 386   0.0000       1.612874        43.8885 
 387   0.0000       1.619796        44.0769 
 388   0.0000       1.624160        44.1956 
 389   0.0000       1.628074        44.3021 
 390   0.0000       1.634863        44.4869 
 391   0.0000       1.640282        44.6343 
 392   0.0000       1.649665        44.8897 
 393   0.0000       1.650990        44.9257 
 394   0.0000       1.662333        45.2344 
 395   0.0000       1.666312        45.3427 
 396   0.0000       1.671222        45.4763 
 397   0.0000       1.677540        45.6482 
 398   0.0000       1.680288        45.7230 
 399   0.0000       1.681464        45.7550 
 400   0.0000       1.691285        46.0222 
 401   0.0000       1.700888        46.2835 
 402   0.0000       1.707272        46.4572 
 403   0.0000       1.719588        46.7924 
 404   0.0000       1.725342        46.9490 
 405   0.0000       1.729216        47.0544 
 406   0.0000       1.731107        47.1058 
 407   0.0000       1.740637        47.3651 
 408   0.0000       1.745548        47.4988 
 409   0.0000       1.751643        47.6646 
 410   0.0000       1.758314        47.8461 
 411   0.0000       1.764467        48.0136 
 412   0.0000       1.772101        48.2213 
 413   0.0000       1.783783        48.5392 
 414   0.0000       1.793376        48.8003 
 415   0.0000       1.804492        49.1027 
 416   0.0000       1.821376        49.5621 
 417   0.0000       1.833102        49.8812 
 418   0.0000       1.841462        50.1087 
 419   0.0000       1.857210        50.5373 
 420   0.0000       1.865706        50.7684 
 421   0.0000       1.893749        51.5315 
 422   0.0000       1.898680        51.6657 
 423   0.0000       1.919377        52.2289 
 424   0.0000       1.933669        52.6178 
 425   0.0000       1.942428        52.8561 
 426   0.0000       1.955733        53.2182 
 427   0.0000       1.965887        53.4945 
 428   0.0000       1.980329        53.8875 
 429   0.0000       1.989017        54.1239 
 430   0.0000       1.996811        54.3360 
 431   0.0000       2.009394        54.6784 
 432   0.0000       2.019776        54.9609 
 433   0.0000       2.034401        55.3589 
 434   0.0000       2.039520        55.4982 
 435   0.0000       2.044089        55.6225 
 436   0.0000       2.052968        55.8641 
 437   0.0000       2.075920        56.4887 
 438   0.0000       2.091110        56.9020 
 439   0.0000       2.104031        57.2536 
 440   0.0000       2.114878        57.5487 
 441   0.0000       2.125147        57.8282 
 442   0.0000       2.137274        58.1582 
 443   0.0000       2.155915        58.6654 
 444   0.0000       2.165770        58.9336 
 445   0.0000       2.175622        59.2017 
 446   0.0000       2.196734        59.7762 
 447   0.0000       2.208751        60.1032 
 448   0.0000       2.221996        60.4636 
 449   0.0000       2.239191        60.9315 
 450   0.0000       2.249917        61.2234 
 451   0.0000       2.253527        61.3216 
 452   0.0000       2.271891        61.8213 
 453   0.0000       2.293382        62.4061 
 454   0.0000       2.300790        62.6077 
 455   0.0000       2.319444        63.1153 
 456   0.0000       2.330537        63.4171 
 457   0.0000       2.352005        64.0013 
 458   0.0000       2.379368        64.7459 
 459   0.0000       2.402290        65.3696 
 460   0.0000       2.414718        65.7078 
 461   0.0000       2.433502        66.2190 
 462   0.0000       2.449960        66.6668 
 463   0.0000       2.481012        67.5118 
 464   0.0000       2.488613        67.7186 
 465   0.0000       2.516422        68.4753 
 466   0.0000       2.535008        68.9811 
 467   0.0000       2.569575        69.9217 
 468   0.0000       2.573767        70.0358 
 469   0.0000       2.593510        70.5730 
 470   0.0000       2.609644        71.0120 
 471   0.0000       2.613491        71.1167 
 472   0.0000       2.639720        71.8304 
 473   0.0000       2.658761        72.3486 
 474   0.0000       2.672015        72.7092 
 475   0.0000       2.690459        73.2111 
 476   0.0000       2.707180        73.6661 
 477   0.0000       2.716696        73.9251 
 478   0.0000       2.739089        74.5344 
 479   0.0000       2.751751        74.8789 
 480   0.0000       2.798667        76.1556 
 481   0.0000       2.817135        76.6581 
 482   0.0000       2.823002        76.8178 
 483   0.0000       2.836468        77.1842 
 484   0.0000       2.839619        77.2700 
 485   0.0000       2.858446        77.7823 
 486   0.0000       2.859129        77.8008 
 487   0.0000       2.884911        78.5024 
 488   0.0000       2.895403        78.7879 
 489   0.0000       2.899976        78.9124 
 490   0.0000       2.901592        78.9563 
 491   0.0000       2.912981        79.2662 
 492   0.0000       2.923505        79.5526 
 493   0.0000       2.936217        79.8985 
 494   0.0000       2.937448        79.9320 
 495   0.0000       2.939232        79.9806 
 496   0.0000       2.949531        80.2608 
 497   0.0000       2.954116        80.3856 
 498   0.0000       2.965274        80.6892 
 499   0.0000       2.973372        80.9096 
 500   0.0000       2.983199        81.1770 
 501   0.0000       2.987694        81.2993 
 502   0.0000       2.995142        81.5019 
 503   0.0000       3.005126        81.7736 
 504   0.0000       3.009885        81.9031 
 505   0.0000       3.022553        82.2479 
 506   0.0000       3.046104        82.8887 
 507   0.0000       3.059765        83.2604 
 508   0.0000       3.073331        83.6296 
 509   0.0000       3.087467        84.0143 
 510   0.0000       3.100016        84.3557 
 511   0.0000       3.106336        84.5277 
 512   0.0000       3.120571        84.9150 
 513   0.0000       3.141156        85.4752 
 514   0.0000       3.145469        85.5926 
 515   0.0000       3.156058        85.8807 
 516   0.0000       3.167931        86.2038 
 517   0.0000       3.169834        86.2556 
 518   0.0000       3.174403        86.3799 
 519   0.0000       3.190424        86.8159 
 520   0.0000       3.201436        87.1155 
 521   0.0000       3.211619        87.3926 
 522   0.0000       3.213184        87.4352 
 523   0.0000       3.215224        87.4907 
 524   0.0000       3.223517        87.7164 
 525   0.0000       3.228336        87.8475 
 526   0.0000       3.230329        87.9017 
 527   0.0000       3.234521        88.0158 
 528   0.0000       3.238731        88.1303 
 529   0.0000       3.244278        88.2813 
 530   0.0000       3.250694        88.4559 
 531   0.0000       3.265113        88.8482 
 532   0.0000       3.272606        89.0521 
 533   0.0000       3.287759        89.4645 
 534   0.0000       3.291626        89.5697 
 535   0.0000       3.308659        90.0332 
 536   0.0000       3.310624        90.0867 
 537   0.0000       3.326178        90.5099 
 538   0.0000       3.333124        90.6989 
 539   0.0000       3.346397        91.0601 
 540   0.0000       3.351416        91.1967 
 541   0.0000       3.364931        91.5644 
 542   0.0000       3.369788        91.6966 
 543   0.0000       3.381605        92.0181 
 544   0.0000       3.404143        92.6314 
 545   0.0000       3.412919        92.8703 
 546   0.0000       3.418304        93.0168 
 547   0.0000       3.427683        93.2720 
 548   0.0000       3.432403        93.4004 
 549   0.0000       3.445651        93.7609 
 550   0.0000       3.451918        93.9315 
 551   0.0000       3.454584        94.0040 
 552   0.0000       3.460540        94.1661 
 553   0.0000       3.468183        94.3740 
 554   0.0000       3.471335        94.4598 
 555   0.0000       3.479581        94.6842 
 556   0.0000       3.483806        94.7992 
 557   0.0000       3.496736        95.1510 
 558   0.0000       3.507367        95.4403 
 559   0.0000       3.527028        95.9753 
 560   0.0000       3.535328        96.2012 
 561   0.0000       3.539706        96.3203 
 562   0.0000       3.548642        96.5635 
 563   0.0000       3.560464        96.8852 
 564   0.0000       3.567853        97.0862 
 565   0.0000       3.571254        97.1788 
 566   0.0000       3.582731        97.4911 
 567   0.0000       3.593753        97.7910 
 568   0.0000       3.608137        98.1824 
 569   0.0000       3.610083        98.2354 
 570   0.0000       3.612868        98.3111 
 571   0.0000       3.620232        98.5115 
 572   0.0000       3.636382        98.9510 
 573   0.0000       3.648917        99.2921 
 574   0.0000       3.655113        99.4607 
 575   0.0000       3.657306        99.5203 
 576   0.0000       3.666094        99.7595 
 577   0.0000       3.676747       100.0494 
 578   0.0000       3.683601       100.2359 
 579   0.0000       3.689564       100.3981 
 580   0.0000       3.708388       100.9104 
 581   0.0000       3.709666       100.9452 
 582   0.0000       3.712009       101.0089 
 583   0.0000       3.718414       101.1832 
 584   0.0000       3.725545       101.3772 
 585   0.0000       3.731733       101.5456 
 586   0.0000       3.741256       101.8048 
 587   0.0000       3.750549       102.0576 
 588   0.0000       3.752709       102.1164 
 589   0.0000       3.774190       102.7009 
 590   0.0000       3.776405       102.7612 
 591   0.0000       3.778134       102.8082 
 592   0.0000       3.784046       102.9691 
 593   0.0000       3.795978       103.2938 
 594   0.0000       3.798702       103.3679 
 595   0.0000       3.806980       103.5932 
 596   0.0000       3.822026       104.0026 
 597   0.0000       3.826354       104.1204 
 598   0.0000       3.830807       104.2416 
 599   0.0000       3.836290       104.3908 
 600   0.0000       3.852020       104.8188 
 601   0.0000       3.861485       105.0764 
 602   0.0000       3.875732       105.4640 
 603   0.0000       3.885723       105.7359 
 604   0.0000       3.906987       106.3145 
 605   0.0000       3.916839       106.5826 
 606   0.0000       3.925886       106.8288 
 607   0.0000       3.938378       107.1687 
 608   0.0000       3.953678       107.5851 
 609   0.0000       3.962840       107.8344 
 610   0.0000       3.975763       108.1860 
 611   0.0000       3.984467       108.4229 
 612   0.0000       4.002508       108.9138 
 613   0.0000       4.008745       109.0835 
 614   0.0000       4.011297       109.1529 
 615   0.0000       4.018231       109.3416 
 616   0.0000       4.022344       109.4536 
 617   0.0000       4.042883       110.0124 
 618   0.0000       4.046513       110.1112 
 619   0.0000       4.047978       110.1511 
 620   0.0000       4.069579       110.7389 
 621   0.0000       4.075961       110.9125 
 622   0.0000       4.082619       111.0937 
 623   0.0000       4.094775       111.4245 
 624   0.0000       4.101920       111.6189 
 625   0.0000       4.102962       111.6473 
 626   0.0000       4.120025       112.1116 
 627   0.0000       4.120706       112.1301 
 628   0.0000       4.130167       112.3875 
 629   0.0000       4.150555       112.9423 
 630   0.0000       4.153928       113.0341 
 631   0.0000       4.157019       113.1182 
 632   0.0000       4.161535       113.2411 
 633   0.0000       4.166944       113.3883 
 634   0.0000       4.182014       113.7984 
 635   0.0000       4.193046       114.0986 
 636   0.0000       4.196343       114.1883 
 637   0.0000       4.209650       114.5504 
 638   0.0000       4.214171       114.6734 
 639   0.0000       4.230354       115.1138 
 640   0.0000       4.240367       115.3862 
 641   0.0000       4.244682       115.5037 
 642   0.0000       4.247809       115.5888 
 643   0.0000       4.253853       115.7532 
 644   0.0000       4.257577       115.8546 
 645   0.0000       4.263530       116.0165 
 646   0.0000       4.267064       116.1127 
 647   0.0000       4.269434       116.1772 
 648   0.0000       4.272933       116.2724 
 649   0.0000       4.284036       116.5746 
 650   0.0000       4.285499       116.6144 
 651   0.0000       4.292211       116.7970 
 652   0.0000       4.303585       117.1065 
 653   0.0000       4.306456       117.1846 
 654   0.0000       4.311359       117.3181 
 655   0.0000       4.320099       117.5559 
 656   0.0000       4.324984       117.6888 
 657   0.0000       4.338518       118.0571 
 658   0.0000       4.344559       118.2215 
 659   0.0000       4.348900       118.3396 
 660   0.0000       4.359047       118.6157 
 661   0.0000       4.365098       118.7804 
 662   0.0000       4.376578       119.0928 
 663   0.0000       4.389153       119.4349 
 664   0.0000       4.395716       119.6135 
 665   0.0000       4.409428       119.9866 
 666   0.0000       4.414840       120.1339 
 667   0.0000       4.422931       120.3541 
 668   0.0000       4.436870       120.7334 
 669   0.0000       4.452035       121.1460 
 670   0.0000       4.459311       121.3440 
 671   0.0000       4.466421       121.5375 
 672   0.0000       4.488008       122.1249 
 673   0.0000       4.495388       122.3257 
 674   0.0000       4.505213       122.5931 
 675   0.0000       4.539372       123.5226 
 676   0.0000       4.546046       123.7042 
 677   0.0000       4.564007       124.1929 
 678   0.0000       4.575940       124.5177 
 679   0.0000       4.588180       124.8507 
 680   0.0000       4.603837       125.2768 
 681   0.0000       4.611946       125.4974 
 682   0.0000       4.617433       125.6467 
 683   0.0000       4.653160       126.6189 
 684   0.0000       4.672949       127.1574 
 685   0.0000       4.691001       127.6486 
 686   0.0000       4.707395       128.0947 
 687   0.0000       4.726835       128.6237 
 688   0.0000       4.754161       129.3673 
 689   0.0000       4.801416       130.6532 
 690   0.0000       4.813989       130.9953 
 691   0.0000       4.828965       131.4028 
 692   0.0000       4.847138       131.8973 
 693   0.0000       4.851625       132.0194 
 694   0.0000       4.860485       132.2605 
 695   0.0000       4.877596       132.7261 
 696   0.0000       4.880063       132.7933 
 697   0.0000       4.913277       133.6971 
 698   0.0000       4.922770       133.9554 
 699   0.0000       4.931711       134.1987 
 700   0.0000       4.938692       134.3886 
 701   0.0000       4.954355       134.8149 
 702   0.0000       4.964119       135.0806 
 703   0.0000       4.974406       135.3605 
 704   0.0000       4.986829       135.6985 
 705   0.0000       4.991403       135.8230 
 706   0.0000       5.012674       136.4018 
 707   0.0000       5.017240       136.5260 
 708   0.0000       5.035350       137.0188 
 709   0.0000       5.095766       138.6629 
 710   0.0000       5.117852       139.2638 
 711   0.0000       5.155421       140.2862 
 712   0.0000       5.188453       141.1850 
 713   0.0000       5.219481       142.0293 
 714   0.0000       5.224074       142.1543 
 715   0.0000       5.232087       142.3723 
 716   0.0000       5.258395       143.0882 
 717   0.0000       5.277063       143.5962 
 718   0.0000       5.287804       143.8885 
 719   0.0000       5.297066       144.1405 
 720   0.0000       5.309874       144.4890 
 721   0.0000       5.340436       145.3206 
 722   0.0000       5.354081       145.6920 
 723   0.0000       5.374435       146.2458 
 724   0.0000       5.385672       146.5516 
 725   0.0000       5.393013       146.7513 
 726   0.0000       5.402456       147.0083 
 727   0.0000       5.410722       147.2332 
 728   0.0000       5.414135       147.3261 
 729   0.0000       5.442749       148.1047 
 730   0.0000       5.448727       148.2674 
 731   0.0000       5.477542       149.0515 
 732   0.0000       5.483640       149.2174 
 733   0.0000       5.494737       149.5194 
 734   0.0000       5.500993       149.6896 
 735   0.0000       5.516180       150.1029 
 736   0.0000       5.533073       150.5626 
 737   0.0000       5.541611       150.7949 
 738   0.0000       5.544709       150.8792 
 739   0.0000       5.570414       151.5787 
 740   0.0000       5.581692       151.8856 
 741   0.0000       5.606594       152.5632 
 742   0.0000       5.616236       152.8255 
 743   0.0000       5.622496       152.9959 
 744   0.0000       5.641823       153.5218 
 745   0.0000       5.657526       153.9491 
 746   0.0000       5.682111       154.6181 
 747   0.0000       5.719535       155.6365 
 748   0.0000       5.742524       156.2620 
 749   0.0000       5.747151       156.3879 
 750   0.0000       5.783107       157.3663 
 751   0.0000       5.795498       157.7035 
 752   0.0000       5.814495       158.2205 
 753   0.0000       5.834219       158.7572 
 754   0.0000       5.839766       158.9081 
 755   0.0000       5.853977       159.2948 
 756   0.0000       5.861444       159.4980 
 757   0.0000       5.883020       160.0851 
 758   0.0000       5.889421       160.2593 
 759   0.0000       5.894546       160.3988 
 760   0.0000       5.902024       160.6022 
 761   0.0000       5.987660       162.9325 
 762   0.0000       5.996744       163.1797 
 763   0.0000       6.055960       164.7911 
 764   0.0000       6.082848       165.5227 
 765   0.0000       6.099568       165.9777 
 766   0.0000       6.194294       168.5553 
 767   0.0000       6.205617       168.8634 
 768   0.0000       6.276693       170.7975 
 769   0.0000       6.371606       173.3802 
 770   0.0000       6.479988       176.3294 
 771   0.0000       6.497058       176.7939 
 772   0.0000       6.600090       179.5976 
 773   0.0000       6.701419       182.3549 
 774   0.0000       6.722952       182.9408 
 775   0.0000       6.740519       183.4188 
 776   0.0000       6.762520       184.0175 
 777   0.0000       6.818218       185.5332 
 778   0.0000       6.827595       185.7883 
 779   0.0000       6.861254       186.7042 
 780   0.0000       6.937246       188.7721 
 781   0.0000       7.012581       190.8220 
 782   0.0000       7.057883       192.0548 
 783   0.0000       7.100229       193.2071 
 784   0.0000       7.118007       193.6908 
 785   0.0000       7.143875       194.3947 
 786   0.0000       7.256516       197.4598 
 787   0.0000       7.268115       197.7755 
 788   0.0000       7.393139       201.1775 
 789   0.0000       7.471773       203.3173 
 790   0.0000       7.496518       203.9906 
 791   0.0000       7.551299       205.4813 
 792   0.0000       7.740078       210.6182 
 793   0.0000       7.851000       213.6366 
 794   0.0000       8.179731       222.5818 
 795   0.0000       8.193710       222.9622 
 796   0.0000       8.201422       223.1720 
 797   0.0000      16.629757       452.5187 
 798   0.0000      23.613319       642.5511 
 799   0.0000      23.769655       646.8052 
 800   0.0000      24.032449       653.9562 
 801   0.0000      24.154398       657.2746 
 802   0.0000      24.197577       658.4496 
 803   0.0000      24.339352       662.3074 
 804   0.0000      24.393790       663.7888 
 805   0.0000      24.437723       664.9842 
 806   0.0000      24.529675       667.4864 
 807   0.0000      29.248633       795.8958 
 808   0.0000      31.730116       863.4203 
 809   0.0000      34.376756       935.4391 
 810   0.0000      44.922770      1222.4107 
 811   0.0000      45.247952      1231.2594 
 812   0.0000      45.341875      1233.8152 
 813   0.0000      45.608436      1241.0686 
 814   0.0000     203.592640      5540.0374 

                    ********************************
                    * MULLIKEN POPULATION ANALYSIS *
                    ********************************

-----------------------
MULLIKEN ATOMIC CHARGES
-----------------------
   0 C :    0.318478
   1 C :   -0.688568
   2 C :   -0.631086
   3 H :    0.054628
   4 H :    0.135477
   5 H :    0.137117
   6 C :    2.883375
   7 O :   -0.404269
   8 C :    0.752931
   9 O :   -0.585038
  10 C :    0.160804
  11 O :   -0.590688
  12 C :   -0.344808
  13 H :    0.077303
  14 H :    0.110371
  15 H :    0.080927
  16 C :   -0.592080
  17 H :    0.117345
  18 H :    0.112375
  19 H :    0.124287
  20 C :   -0.833442
  21 H :    0.090551
  22 H :    0.090582
  23 H :    0.131149
  24 Au:   -0.001172
  25 P :    0.064617
  26 H :    0.078950
  27 H :    0.070337
  28 H :    0.079547
Sum of atomic charges:    1.0000000

--------------------------------
MULLIKEN REDUCED ORBITAL CHARGES
--------------------------------
  0 C s       :     3.474116  s :     3.474116
      pz      :     0.860587  p :     2.257099
      px      :     0.922251
      py      :     0.474260
      dz2     :    -0.016124  d :    -0.059488
      dxz     :     0.009129
      dyz     :    -0.017930
      dx2y2   :     0.059835
      dxy     :    -0.094397
      f0      :     0.001460  f :     0.009795
      f+1     :     0.000727
      f-1     :     0.001293
      f+2     :     0.000824
      f-2     :     0.001285
      f+3     :     0.001828
      f-3     :     0.002377
  1 C s       :     4.018769  s :     4.018769
      pz      :     1.144524  p :     2.517877
      px      :     0.442028
      py      :     0.931324
      dz2     :     0.013967  d :     0.140696
      dxz     :    -0.004633
      dyz     :    -0.007384
      dx2y2   :     0.166684
      dxy     :    -0.027938
      f0      :     0.001412  f :     0.011226
      f+1     :     0.001015
      f-1     :     0.001359
      f+2     :     0.000586
      f-2     :     0.001791
      f+3     :     0.002472
      f-3     :     0.002591
  2 C s       :     3.289235  s :     3.289235
      pz      :     1.134747  p :     3.265946
      px      :     1.138914
      py      :     0.992286
      dz2     :     0.024975  d :     0.071773
      dxz     :     0.028809
      dyz     :     0.000120
      dx2y2   :     0.007350
      dxy     :     0.010518
      f0      :     0.000289  f :     0.004132
      f+1     :     0.000716
      f-1     :     0.000555
      f+2     :     0.000377
      f-2     :     0.000284
      f+3     :     0.000820
      f-3     :     0.001092
  3 H s       :     0.908208  s :     0.908208
      pz      :     0.012550  p :     0.035192
      px      :     0.022494
      py      :     0.000147
      dz2     :     0.000136  d :     0.001972
      dxz     :     0.000604
      dyz     :     0.000097
      dx2y2   :     0.000618
      dxy     :     0.000517
  4 H s       :     0.833712  s :     0.833712
      pz      :     0.015305  p :     0.028828
      px      :     0.009704
      py      :     0.003819
      dz2     :     0.000617  d :     0.001984
      dxz     :     0.000373
      dyz     :     0.000350
      dx2y2   :     0.000378
      dxy     :     0.000266
  5 H s       :     0.835596  s :     0.835596
      pz      :     0.017492  p :     0.025305
      px      :     0.008247
      py      :    -0.000434
      dz2     :     0.000649  d :     0.001982
      dxz     :     0.000489
      dyz     :     0.000517
      dx2y2   :     0.000190
      dxy     :     0.000138
  6 C s       :     1.768894  s :     1.768894
      pz      :     0.439591  p :     1.336048
      px      :     0.327244
      py      :     0.569213
      dz2     :     0.112754  d :    -0.002935
      dxz     :     0.025666
      dyz     :    -0.052917
      dx2y2   :    -0.054465
      dxy     :    -0.033973
      f0      :     0.002114  f :     0.014619
      f+1     :     0.002964
      f-1     :     0.001555
      f+2     :     0.001978
      f-2     :     0.001421
      f+3     :     0.002521
      f-3     :     0.002066
  7 O s       :     3.860906  s :     3.860906
      pz      :     1.741615  p :     4.519142
      px      :     1.301411
      py      :     1.476116
      dz2     :     0.002280  d :     0.022003
      dxz     :     0.005496
      dyz     :     0.007842
      dx2y2   :     0.009789
      dxy     :    -0.003404
      f0      :     0.000316  f :     0.002218
      f+1     :     0.000302
      f-1     :     0.000245
      f+2     :     0.000283
      f-2     :     0.000165
      f+3     :     0.000513
      f-3     :     0.000396
  8 C s       :     3.063052  s :     3.063052
      pz      :     0.588964  p :     1.890320
      px      :     0.708159
      py      :     0.593197
      dz2     :     0.003900  d :     0.266179
      dxz     :     0.001097
      dyz     :     0.088150
      dx2y2   :     0.129358
      dxy     :     0.043673
      f0      :     0.002822  f :     0.027518
      f+1     :     0.001623
      f-1     :     0.001965
      f+2     :     0.002161
      f-2     :     0.004416
      f+3     :     0.005022
      f-3     :     0.009508
  9 O s       :     3.948169  s :     3.948169
      pz      :     1.505074  p :     4.598198
      px      :     1.600276
      py      :     1.492848
      dz2     :     0.003683  d :     0.036670
      dxz     :     0.006381
      dyz     :     0.012054
      dx2y2   :    -0.000911
      dxy     :     0.015464
      f0      :     0.000204  f :     0.002001
      f+1     :     0.000115
      f-1     :     0.000242
      f+2     :     0.000116
      f-2     :     0.000357
      f+3     :     0.000469
      f-3     :     0.000498
 10 C s       :     3.549612  s :     3.549612
      pz      :     0.626356  p :     2.111116
      px      :     0.728962
      py      :     0.755799
      dz2     :     0.045311  d :     0.159268
      dxz     :     0.076469
      dyz     :    -0.024669
      dx2y2   :     0.018465
      dxy     :     0.043692
      f0      :     0.001478  f :     0.019199
      f+1     :     0.004177
      f-1     :     0.001649
      f+2     :     0.003101
      f-2     :     0.002749
      f+3     :     0.002915
      f-3     :     0.003130
 11 O s       :     3.999926  s :     3.999926
      pz      :     1.604239  p :     4.547998
      px      :     1.333150
      py      :     1.610609
      dz2     :     0.005013  d :     0.040700
      dxz     :     0.008861
      dyz     :     0.005294
      dx2y2   :     0.011434
      dxy     :     0.010099
      f0      :     0.000167  f :     0.002064
      f+1     :     0.000440
      f-1     :     0.000083
      f+2     :     0.000301
      f-2     :     0.000292
      f+3     :     0.000442
      f-3     :     0.000339
 12 C s       :     3.007647  s :     3.007647
      pz      :     1.011679  p :     3.257128
      px      :     1.125929
      py      :     1.119519
      dz2     :     0.003807  d :     0.076168
      dxz     :     0.016260
      dyz     :     0.023308
      dx2y2   :     0.012630
      dxy     :     0.020163
      f0      :     0.000377  f :     0.003865
      f+1     :     0.000580
      f-1     :     0.000686
      f+2     :     0.000645
[...]
      f+1     :     0.005305
      f-1     :     0.004846
      f+2     :     0.004921
      f-2     :     0.004898
      f+3     :     0.002589
      f-3     :     0.004363
 13 H s       :     0.683258  s :     0.683258
      pz      :     0.094587  p :     0.274040
      px      :     0.076931
      py      :     0.102522
      dz2     :     0.007313  d :     0.029258
      dxz     :     0.005138
      dyz     :     0.007579
      dx2y2   :     0.004019
      dxy     :     0.005209
 14 H s       :     0.689974  s :     0.689974
      pz      :     0.075192  p :     0.269287
      px      :     0.095284
      py      :     0.098811
      dz2     :     0.003895  d :     0.029616
      dxz     :     0.004706
      dyz     :     0.005920
      dx2y2   :     0.008194
      dxy     :     0.006902
 15 H s       :     0.679587  s :     0.679587
      pz      :     0.073725  p :     0.275467
      px      :     0.117034
      py      :     0.084708
      dz2     :     0.003081  d :     0.029396
      dxz     :     0.007130
      dyz     :     0.002714
      dx2y2   :     0.008124
      dxy     :     0.008347
 16 C s       :     2.617953  s :     2.617953
      pz      :     0.914254  p :     2.676315
      px      :     0.835587
      py      :     0.926474
      dz2     :     0.060157  d :     0.401093
      dxz     :     0.080358
      dyz     :     0.069290
      dx2y2   :     0.104502
      dxy     :     0.086786
      f0      :     0.002459  f :     0.030573
      f+1     :     0.004710
      f-1     :     0.004326
      f+2     :     0.003711
      f-2     :     0.003479
      f+3     :     0.007100
      f-3     :     0.004789
 17 H s       :     0.689444  s :     0.689444
      pz      :     0.074803  p :     0.266977
      px      :     0.067898
      py      :     0.124275
      dz2     :     0.003089  d :     0.029492
      dxz     :     0.001188
      dyz     :     0.008828
      dx2y2   :     0.008040
      dxy     :     0.008347
 18 H s       :     0.687020  s :     0.687020
      pz      :     0.107618  p :     0.268350
      px      :     0.064658
      py      :     0.096073
      dz2     :     0.008881  d :     0.029294
      dxz     :     0.005572
      dyz     :     0.007540
      dx2y2   :     0.003871
      dxy     :     0.003430
 19 H s       :     0.683309  s :     0.683309
      pz      :     0.107848  p :     0.266137
      px      :     0.077343
      py      :     0.080947
      dz2     :     0.008382  d :     0.029175
      dxz     :     0.006805
      dyz     :     0.006512
      dx2y2   :     0.004149
      dxy     :     0.003326
 20 C s       :     2.609421  s :     2.609421
      pz      :     0.814300  p :     2.634165
      px      :     0.911428
      py      :     0.908437
      dz2     :     0.124486  d :     0.482612
      dxz     :     0.100901
      dyz     :     0.112801
      dx2y2   :     0.064718
      dxy     :     0.079707
      f0      :     0.008830  f :     0.031048
      f+1     :     0.004106
      f-1     :     0.005595
      f+2     :     0.003540
      f-2     :     0.003446
      f+3     :     0.005301
      f-3     :     0.000230
 21 H s       :     0.686853  s :     0.686853
      pz      :     0.063457  p :     0.262146
      px      :     0.087582
      py      :     0.111106
      dz2     :     0.003315  d :     0.029176
      dxz     :     0.002588
      dyz     :     0.006378
      dx2y2   :     0.009133
      dxy     :     0.007762
 22 H s       :     0.678176  s :     0.678176
      pz      :     0.076006  p :     0.283674
      px      :     0.130151
      py      :     0.077516
      dz2     :     0.004278  d :     0.029702
      dxz     :     0.008630
      dyz     :     0.001063
      dx2y2   :     0.006809
      dxy     :     0.008922
 23 H s       :     0.682853  s :     0.682853
      pz      :     0.074885  p :     0.270897
      px      :     0.085203
      py      :     0.110809
      dz2     :     0.005127  d :     0.029359
      dxz     :     0.003215
      dyz     :     0.006727
      dx2y2   :     0.007464
      dxy     :     0.006826
 24 Aus       :     2.356128  s :     2.356128
      pz      :     2.025058  p :     6.402991
      px      :     2.281453
      py      :     2.096480
      dz2     :     1.950295  d :     9.613681
      dxz     :     1.927052
      dyz     :     1.963827
      dx2y2   :     1.900292
      dxy     :     1.872217
      f0      :     0.001951  f :     0.038233
      f+1     :     0.008681
      f-1     :     0.002823
      f+2     :     0.001089
      f-2     :     0.002069
      f+3     :     0.004551
      f-3     :     0.017069
      g0      :     0.000055  g :     0.000583
      g+1     :     0.000044
      g-1     :     0.000013
      g+2     :     0.000045
      g-2     :     0.000088
      g+3     :     0.000009
      g-3     :     0.000038
      g+4     :     0.000114
      g-4     :     0.000177
 25 P s       :     4.791367  s :     4.791367
      pz      :     2.837384  p :     8.747777
      px      :     3.026855
      py      :     2.883537
      dz2     :     0.088533  d :     0.528889
      dxz     :     0.056960
      dyz     :     0.150023
      dx2y2   :     0.076229
      dxy     :     0.157144
      f0      :     0.003792  f :     0.060025
      f+1     :     0.008546
      f-1     :     0.009827
      f+2     :     0.009197
      f-2     :     0.007108
      f+3     :     0.009484
      f-3     :     0.012071
 26 H s       :     0.857502  s :     0.857502
      pz      :     0.105673  p :     0.290820
      px      :     0.081465
      py      :     0.103681
      dz2     :     0.002548  d :     0.011855
      dxz     :     0.001819
      dyz     :     0.004237
      dx2y2   :     0.001387
      dxy     :     0.001863
 27 H s       :     0.858791  s :     0.858791
      pz      :     0.056724  p :     0.294378
      px      :     0.140074
      py      :     0.097581
      dz2     :     0.001542  d :     0.011845
      dxz     :     0.001379
      dyz     :     0.001196
      dx2y2   :     0.003443
      dxy     :     0.004284
 28 H s       :     0.856496  s :     0.856496
      pz      :     0.119545  p :     0.290328
      px      :     0.081644
      py      :     0.089140
      dz2     :     0.003214  d :     0.011859
      dxz     :     0.002425
      dyz     :     0.004066
      dx2y2   :     0.000821
      dxy     :     0.001333


                      *****************************
                      * MAYER POPULATION ANALYSIS *
                      *****************************

  NA   - Mulliken gross atomic population
  ZA   - Total nuclear charge
  QA   - Mulliken gross atomic charge
  VA   - Mayer's total valence
  BVA  - Mayer's bonded valence
  FA   - Mayer's free valence

  ATOM       NA         ZA         QA         VA         BVA        FA
  0 C      5.6815     6.0000     0.3185     2.3566     2.3566     0.0000
  1 C      6.6886     6.0000    -0.6886     1.7105     1.7105    -0.0000
  2 C      6.6311     6.0000    -0.6311     3.8295     3.8295    -0.0000
  3 H      0.9454     1.0000     0.0546     1.0672     1.0672    -0.0000
  4 H      0.8645     1.0000     0.1355     0.9909     0.9909    -0.0000
  5 H      0.8629     1.0000     0.1371     0.9931     0.9931    -0.0000
  6 C      3.1166     6.0000     2.8834    -0.0197    -0.0197     0.0000
  7 O      8.4043     8.0000    -0.4043     1.6386     1.6386    -0.0000
  8 C      5.2471     6.0000     0.7529     3.7928     3.7928    -0.0000
  9 O      8.5850     8.0000    -0.5850     1.7603     1.7603    -0.0000
 10 C      5.8392     6.0000     0.1608     3.0317     3.0317     0.0000
 11 O      8.5907     8.0000    -0.5907     1.7260     1.7260    -0.0000
 12 C      6.3448     6.0000    -0.3448     4.0886     4.0886    -0.0000
 13 H      0.9227     1.0000     0.0773     1.0388     1.0388    -0.0000
 14 H      0.8896     1.0000     0.1104     1.0217     1.0217    -0.0000
 15 H      0.9191     1.0000     0.0809     1.0458     1.0458    -0.0000
 16 C      6.5921     6.0000    -0.5921     3.7666     3.7666    -0.0000
 17 H      0.8827     1.0000     0.1173     1.0429     1.0429    -0.0000
 18 H      0.8876     1.0000     0.1124     1.0385     1.0385     0.0000
 19 H      0.8757     1.0000     0.1243     1.0344     1.0344    -0.0000
 20 C      6.8334     6.0000    -0.8334     4.0301     4.0301    -0.0000
 21 H      0.9094     1.0000     0.0906     1.0346     1.0346     0.0000
 22 H      0.9094     1.0000     0.0906     1.0683     1.0683    -0.0000
 23 H      0.8689     1.0000     0.1311     1.0053     1.0053    -0.0000
 24 Au    19.0012    19.0000    -0.0012     1.8835     1.8835    -0.0000
 25 P     14.9354    15.0000     0.0646     3.7357     3.7357     0.0000
 26 H      0.9211     1.0000     0.0789     0.9438     0.9438     0.0000
 27 H      0.9297     1.0000     0.0703     0.9371     0.9371     0.0000
 28 H      0.9205     1.0000     0.0795     0.9446     0.9446     0.0000

  Mayer bond orders larger than 0.100000
B(  0-C ,  1-C ) :   1.0561 B(  0-C ,  2-C ) :   1.1807 B(  0-C ,  6-C ) :  -0.2284 
B(  0-C , 24-Au) :   0.5765 B(  1-C ,  2-C ) :  -0.5140 B(  1-C ,  6-C ) :  -0.1312 
B(  1-C , 10-C ) :   0.6711 B(  1-C , 20-C ) :   0.3563 B(  1-C , 24-Au) :   0.3142 
B(  2-C ,  3-H ) :   1.0833 B(  2-C ,  4-H ) :   0.9882 B(  2-C ,  5-H ) :   0.9841 
B(  6-C ,  7-O ) :   0.5250 B(  6-C ,  8-C ) :  -0.1320 B(  6-C , 10-C ) :  -0.2489 
B(  6-C , 20-C ) :   0.4910 B(  6-C , 21-H ) :  -0.1020 B(  7-O ,  8-C ) :   1.0848 
B(  7-O , 16-C ) :  -0.1044 B(  7-O , 20-C ) :   0.1401 B(  8-C ,  9-O ) :   1.7600 
B(  8-C , 16-C ) :   1.0438 B( 10-C , 11-O ) :   1.6523 B( 10-C , 12-C ) :   1.0749 
B( 12-C , 13-H ) :   0.9571 B( 12-C , 14-H ) :   1.0351 B( 12-C , 15-H ) :   0.9561 
B( 16-C , 17-H ) :   1.0111 B( 16-C , 18-H ) :   0.9899 B( 16-C , 19-H ) :   0.9677 
B( 20-C , 21-H ) :   1.0086 B( 20-C , 22-H ) :   1.0229 B( 20-C , 23-H ) :   0.9948 
B( 24-Au, 25-P ) :   0.9287 B( 25-P , 26-H ) :   0.9535 B( 25-P , 27-H ) :   0.9592 
B( 25-P , 28-H ) :   0.9543 

-------
TIMINGS
-------

Total SCF time: 0 days 0 hours 1 min 7 sec 

Total time                  ....      67.653 sec
Sum of individual times     ....      66.733 sec  ( 98.6%)

Fock matrix formation       ....      59.316 sec  ( 87.7%)
  XC integration            ....       5.502 sec  (  9.3% of F)
    Basis function eval.    ....       1.021 sec  ( 18.5% of XC)
    Density eval.           ....       1.844 sec  ( 33.5% of XC)
    XC-Functional eval.     ....       0.062 sec  (  1.1% of XC)
    XC-Potential eval.      ....       1.936 sec  ( 35.2% of XC)
Diagonalization             ....       2.779 sec  (  4.1%)
Density matrix formation    ....       0.106 sec  (  0.2%)
Population analysis         ....       0.147 sec  (  0.2%)
Initial guess               ....       1.842 sec  (  2.7%)
Orbital Transformation      ....       0.000 sec  (  0.0%)
Orbital Orthonormalization  ....       0.000 sec  (  0.0%)
DIIS solution               ....       1.513 sec  (  2.2%)
Grid generation             ....       1.030 sec  (  1.5%)


           ************************************************************
           *        Program running with 24 parallel MPI-processes    *
           *              working on a common directory               *
           ************************************************************

------------------------------------------------------------------------------
                                ORCA  MP2 
------------------------------------------------------------------------------

Freezing NCore=34 chemical core electrons

-------------
RI-MP2 ENERGY
-------------
Dimension of the basis                    ...  815
Memory devoted to MP2                     ... 5000 MB   
Data format for buffers                   ... DOUBLE
Compression type for matrix containers    ... UNCOMPRESSED
Scaling for aa/bb pairs                   ...   4.000e-01
Scaling for ab pairs                      ...   4.700e-01
Overall scaling of the MP2 energy         ...   1.000e+00
Calculating two index integrals           ... done (    0.032 sec)
Cholesky decomposition of V**-1           ... done (    0.420 sec)

-----------------
RI-TRANSFORMATION (AUX index driven)
-----------------

Dimension of the orbital-basis         ... 815
Dimension of the aux-basis             ... 2021
Transformation of internal/external MOs...   17-  62 to   63- 814
Number Format for Storage              ... Double (8 Byte)
Integral mode                          ... Direct

First Phase: integral generation and transformation of MO indices
  Aux angular momentum 0               ... done (    0.161 sec)
  Aux angular momentum 1               ... done (    0.309 sec)
  Aux angular momentum 2               ... done (    0.457 sec)
  Aux angular momentum 3               ... done (    0.413 sec)
  Aux angular momentum 4               ... done (    0.113 sec)
  Aux angular momentum 5               ... done (    0.144 sec)
  Aux angular momentum 6               ... done (    0.192 sec)
Closing buffer VIA ( 0.52 GB; CompressionRatio= 1.00)
  Phase 1 completed in     1.903 sec
Second Phase: sorting and transformation of aux index

IA-Transformation
Memory available                       ... 4916 MB 
Max. # MO pairs treated in a batch     ... 2    
# of internal orbitals                 ... 46
# batches for internal orbitals        ... 1
Closing buffer IAV ( 0.02 GB; CompressionRatio= 1.00)
(ia|v) transformation done in     0.394 sec

  Phase 2 completed in     1.005 sec
RI-Integral transformation completed in     2.932 sec
Opening buffers                              ... done

Starting loop over batches of integrals:

Operator 0  - window                       ... ( 17- 62)x( 63-814)
Operator 0  - Memory available             ...  5000 MB
Operator 0  - Memory needed per MO         ...  11.6 MB
Operator 0  - Number of orbitals per batch ... 2
Operator 0  - Number of batches            ... 1

OPERATOR  0   PASS   0:  MOs    17 ...   18 +   19 ...   20 +   21 ...   22 +   23 ...   24
                            +   25 ...   26 +   27 ...   28 +   29 ...   30 +   31 ...   32
                            +   33 ...   34 +   35 ...   36 +   37 ...   38 +   39 ...   40
                            +   41 ...   42 +   43 ...   44 +   45 ...   46 +   47 ...   48
                            +   49 ...   50 +   51 ...   52 +   53 ...   54 +   55 ...   56
                            +   57 ...   58 +   59 ...   60 +   61 ...   62
  Reading integrals       ... ok
Time spent in pair loops =     0.203 sec
Deleting buffer (Ka|jb)[aa] ...done

-----------------------------------------------
 RI-MP2 CORRELATION ENERGY:     -1.509481703 Eh
-----------------------------------------------


-------
TIMINGS
-------

Total time                :    7.614 sec
Integral trafo            :    2.950 sec ( 38.7%)
I/O of integrals          :    0.034 sec (  0.4%)
K(i,j) Operators          :    0.128 sec (  1.7%)
T(i,j) pair energies      :    0.022 sec (  0.3%)
V-calculation             :    0.032 sec (  0.4%)
V**(-1/2)                 :    0.420 sec (  5.5%)
Gamma(ia|P)               :    0.000 sec (  0.0%)
Gamma-Trafo               :    0.000 sec (  0.0%)
D(virtual)                :    0.000 sec (  0.0%)
D(internal)               :    0.000 sec (  0.0%)
W(virtual)                :    0.000 sec (  0.0%)
W(internal)               :    0.000 sec (  0.0%)
L(virtual)                :    0.000 sec (  0.0%)
L(internal)               :    0.000 sec (  0.0%)
G(D)                      :    0.000 sec (  0.0%)
G(Z)                      :    0.000 sec (  0.0%)
Z-Vector Solution         :    0.000 sec (  0.0%)
Z-Vector Solution         :    0.000 sec (  0.0%)
3-Index Derivative 
+ Separable RIJ part      :    0.000 sec (  0.0%)
2-Index Derivative 
+ Separable RIJ part      :    0.000 sec (  0.0%)
Separable Gradient (X)    :    0.000 sec (  0.0%)


---------------------------------------
MP2 TOTAL ENERGY:    -1053.662496006 Eh
---------------------------------------


-------------------------------------------------------------------------------
                          DFT DISPERSION CORRECTION                            
                                                                               
                              DFTD3 V3.1  Rev 1                                
                          USING Becke-Johnson damping                          
-------------------------------------------------------------------------------
The DSD-BLYP/2013 functional is recognized
Active option DFTDOPT                   ...         4   

molecular C6(AA) [au] = 11646.249776 


            DFT-D V3
 parameters
 s6 scaling factor         :     0.5700 
 a1 scaling factor         :     0.0000 
 s8 scaling factor         :     0.0000 
 a2 scaling factor         :     5.4000 
 ad hoc parameters k1-k3   :    16.0000     1.3333    -4.0000 

 Edisp/kcal,au: -21.874315155121  -0.034858936360 
 E6   /kcal   : -21.874315155 
 E8   /kcal   :  -0.000000000 
 % E8         :   0.000000000 

-------------------------   ----------------
Dispersion correction           -0.034858936
-------------------------   ----------------


-------------------------   --------------------
FINAL SINGLE POINT ENERGY     -1053.697354942375
-------------------------   --------------------


                            ***************************************
                            *     ORCA property calculations      *
                            ***************************************


  WARNING: The energy has been calculated at the MP2 level but the densities
           used in the property calculations are still SCF densities
           MP2 response densities have not been calculated 
           use %mp2 Density relaxed end
           or  %mp2 Density unrelaxed end

                                    ---------------------
                                    Active property flags
                                    ---------------------
   (+) Dipole Moment


------------------------------------------------------------------------------
                       ORCA ELECTRIC PROPERTIES CALCULATION
------------------------------------------------------------------------------

Dipole Moment Calculation                       ... on
Quadrupole Moment Calculation                   ... off
Polarizability Calculation                      ... off
GBWName                                         ... TMB29_T1.gbw
Electron density file                           ... TMB29_T1.scfp
The origin for moment calculation is the CENTER OF MASS  = (-0.362876, -0.065725 -0.005009)

-------------
DIPOLE MOMENT
-------------
                                X             Y             Z
Electronic contribution:   -212.11271     -43.03526      -5.74775
Nuclear contribution   :    212.91002      43.46471       5.39034
                        -----------------------------------------
Total Dipole Moment    :      0.79731       0.42945      -0.35741
                        -----------------------------------------
Magnitude (a.u.)       :      0.97359
Magnitude (Debye)      :      2.47467



--------------------
Rotational spectrum 
--------------------
 
Rotational constants in cm-1:     0.027720     0.008314     0.006995 
Rotational constants in MHz :   831.016337   249.254276   209.717578 

 Dipole components along the rotational axes: 
x,y,z [a.u.] :     0.799956    -0.419793    -0.362932 
x,y,z [Debye]:     2.033326    -1.067028    -0.922501 

 

Timings for individual modules:

Sum of individual times         ...       79.836 sec (=   1.331 min)
GTO integral calculation        ...        3.479 sec (=   0.058 min)   4.4 %
SCF iterations                  ...       68.027 sec (=   1.134 min)  85.2 %
MP2 module                      ...        8.329 sec (=   0.139 min)  10.4 %
                             ****ORCA TERMINATED NORMALLY****
TOTAL RUN TIME: 0 days 0 hours 1 minutes 20 seconds 439 msec
