
                                 *****************
                                 * O   R   C   A *
                                 *****************

           --- An Ab Initio, DFT and Semiempirical electronic structure package ---

                  #######################################################
                  #                        -***-                        #
                  #          Department of theory and spectroscopy      #
                  #               Directorship: Frank Neese             #
                  #        Max Planck Institute fuer Kohlenforschung    #
                  #                Kaiser Wilhelm Platz 1               #
                  #                 D-45470 Muelheim/Ruhr               #
                  #                      Germany                        #
                  #                                                     #
                  #                  All rights reserved                #
                  #                        -***-                        #
                  #######################################################


                         Program Version 4.2.0 -  RELEASE  -


 With contributions from (in alphabetic order):
   Daniel Aravena         : Magnetic Suceptibility
   Michael Atanasov       : Ab Initio Ligand Field Theory (pilot matlab implementation)
   Alexander A. Auer      : GIAO ZORA, VPT2
   Ute Becker             : Parallelization
   Giovanni Bistoni       : ED, misc. LED, open-shell LED, HFLED
   Martin Brehm           : Molecular dynamics
   Dmytro Bykov           : SCF Hessian
   Vijay G. Chilkuri      : MRCI spin determinant printing, contributions to CSF-ICE
   Dipayan Datta          : RHF DLPNO-CCSD density
   Achintya Kumar Dutta   : EOM-CC, STEOM-CC
   Dmitry Ganyushin       : Spin-Orbit,Spin-Spin,Magnetic field MRCI
   Miquel Garcia          : C-PCM Hessian, Gaussian charge scheme
   Yang Guo               : DLPNO-NEVPT2, CIM, IAO-localization
   Andreas Hansen         : Spin unrestricted coupled pair/coupled cluster methods
   Benjamin Helmich-Paris : CASSCF linear response (MC-RPA)
   Lee Huntington         : MR-EOM, pCC
   Robert Izsak           : Overlap fitted RIJCOSX, COSX-SCS-MP3, EOM
   Christian Kollmar      : KDIIS, OOCD, Brueckner-CCSD(T), CCSD density
   Simone Kossmann        : Meta GGA functionals, TD-DFT gradient, OOMP2, MP2 Hessian
   Martin Krupicka        : AUTO-CI
   Lucas Lang             : DCDCAS
   Dagmar Lenk            : GEPOL surface, SMD
   Dimitrios Liakos       : Extrapolation schemes; Compound Job, initial MDCI parallelization
   Dimitrios Manganas     : Further ROCIS development; embedding schemes
   Dimitrios Pantazis     : SARC Basis sets
   Taras Petrenko         : DFT Hessian,TD-DFT gradient, ASA, ECA, R-Raman, ABS, FL, XAS/XES, NRVS
   Peter Pinski           : DLPNO-MP2, DLPNO-MP2 Gradient
   Christoph Reimann      : Effective Core Potentials
   Marius Retegan         : Local ZFS, SOC
   Christoph Riplinger    : Optimizer, TS searches, QM/MM, DLPNO-CCSD(T), (RO)-DLPNO pert. Triples
   Tobias Risthaus        : Range-separated hybrids, TD-DFT gradient, RPA, STAB
   Michael Roemelt        : Original ROCIS implementation
   Masaaki Saitow         : Open-shell DLPNO-CCSD energy and density
   Barbara Sandhoefer     : DKH picture change effects
   Avijit Sen             : IP-ROCIS
   Kantharuban Sivalingam : CASSCF convergence, NEVPT2, FIC-MRCI
   Bernardo de Souza      : ESD, SOC TD-DFT
   Georgi Stoychev        : AutoAux, RI-MP2 NMR
   Willem Van den Heuvel  : Paramagnetic NMR
   Boris Wezisla          : Elementary symmetry handling
   Frank Wennmohs         : Technical directorship


 We gratefully acknowledge several colleagues who have allowed us to
 interface, adapt or use parts of their codes:
   Stefan Grimme, W. Hujo, H. Kruse,             : VdW corrections, initial TS optimization,
                  C. Bannwarth                     DFT functionals, gCP, sTDA/sTD-DF
   Ed Valeev, F. Pavosevic, A. Kumar             : LibInt (2-el integral package), F12 methods
   Garnet Chan, S. Sharma, J. Yang, R. Olivares  : DMRG
   Ulf Ekstrom                                   : XCFun DFT Library
   Mihaly Kallay                                 : mrcc  (arbitrary order and MRCC methods)
   Andreas Klamt, Michael Diedenhofen            : otool_cosmo (COSMO solvation model)
   Jiri Pittner, Ondrej Demel                    : Mk-CCSD
   Frank Weinhold                                : gennbo (NPA and NBO analysis)
   Christopher J. Cramer and Donald G. Truhlar   : smd solvation model
   Lars Goerigk                                  : TD-DFT with DH, B97 family of functionals
   V. Asgeirsson, H. Jonsson                     : NEB implementation
   FAccTs GmbH                                   : IRC, NEB, NEB-TS, Multilevel, MM, QM/MM, CI optimization
   S Lehtola, MJT Oliveira, MAL Marques          : LibXC Library


 Your calculation uses the libint2 library for the computation of 2-el integrals
 For citations please refer to: http://libint.valeyev.net

 Your ORCA version has been built with support for libXC version: 4.2.3
 For citations please refer to: https://tddft.org/programs/libxc/

 This ORCA versions uses:
   CBLAS   interface :  Fast vector & matrix operations
   LAPACKE interface :  Fast linear algebra routines
   SCALAPACK package :  Parallel linear algebra routines


Your calculation utilizes the atom-pairwise dispersion correction
with the Becke-Johnson damping scheme (D3BJ)
Cite in your paper:
S.Grimme, S.Ehrlich, L.Goerigk, J Comput Chem, (2011), 32, 1456–1465 
S.Grimme, J.Antony, S.Ehrlich and H.Krieg, J.Chem.Phys., 132, (2010), 154104 
   

----- Orbital basis set information -----
Your calculation utilizes the basis: def2-TZVPPD
   F. Weigend and R. Ahlrichs, Phys. Chem. Chem. Phys. 7, 3297 (2005).
   D. Rappoport and F. Furche, J. Chem. Phys. 133 134105 (2010).

----- AuxC basis set information -----
Your calculation utilizes the auxiliary basis: def2-TZVPPD/C
   A. Hellweg, C. Hattig, S. Hofener and W. Klopper, Theor. Chem. Acc. 117, 587 (2007).

----- AuxJK basis set information -----
Your calculation utilizes the auxiliary basis: def2/JK
   H-Ba, Hf-Rn: F. Weigend, J. Comput. Chem. 29, 167 (2008).

cite the ECPs for Ir [Def2-ECP] as follows:
Ce-Yb(ecp-28): M. Dolg, H. Stoll, H.Preuss, J. Chem. Phys., 1989, 90, 1730-1734.
Y-Cd(ecp-28), Hf-Hg(ecp-46): D. Andrae,U. Haeussermann, M. Dolg, H. Stoll, H. Preuss, Theor. Chim. Acta, 1990, 77, 123-141.
In-Sb(ecp-28), Tl-Bi(ecp-46): B. Metz, H. Stoll, M. Dolg, J. Chem. Phys., 2000, 113, 2563-2569.
Te-Xe(ecp-28), Po-Rn(ecp-46): K. A. Peterson, D. Figgen, E. Goll, H. Stoll, M. Dolg, J. Chem. Phys., 2003, 119, 11113-11123.
Rb(ecp-28), Cs(ecp-46): T. Leininger, A. Nicklass, W. Kuechle, H. Stoll, M. Dolg, A. Bergner, Chem. Phys. Lett., 1996, 255, 274-280.
Sr(ecp-28), Ba(ecp-46): M. Kaupp, P. V. Schleyer, H. Stoll and H. Preuss, J. Chem. Phys., 1991, 94, 1360-1366.
La(ecp-46): M. Dolg, H. Stoll, A. Savin, H. Preuss, Theor. Chim. Acta, 1989, 75, 173-194.
Lu(ecp-28): X. Cao, M. Dolg, J. Chem. Phys., 2001, 115, 7348-7355.

ECP parameters for Ir [Def2-ECP] have been obtained from:
TURBOMOLE (7.0.2)

================================================================================
                                        WARNINGS
                       Please study these warnings very carefully!
================================================================================


WARNING: No MP2 level density has been requested!
         To caclulate MP2 level properties use
         %mp2 Density relaxed end
         or
         %mp2 Density unrelaxed end
         Otherwise for double-hybrid DFT only the energy is correct!

WARNING: There are different parametrizations of Gershom Martin's DSD-DFs
         for use with and without D3(BJ)!
         You are using the D3(BJ) parametrized version,
         consistent with the 2013 article (S. Kozuch and J. M. L. Martin, JCC 2013, 34, 2327)

WARNING: The frozen-core approximation is turned on by default for 
         the MP2 part of double-hybrid DFT.

INFO   : the flag for use of LIBINT has been found!

================================================================================
                                       INPUT FILE
================================================================================
NAME = TMB31_C1.in
|  1> #
|  2> # TMB31_C1 ri-DSD-BLYP/2013-D3BJ/Def2-TZVPPD
|  3> #
|  4> ! rijk ri-dsd-blyp/2013 d3bj def2-tzvppd def2/jk def2-tzvppd/c grid4 nofinalgrid
|  5> 
|  6> *xyz 1 1
|  7> Ir      -0.040708    0.096324    0.064455 
|  8> C       -0.971708    0.418734    1.931461 
|  9> C        1.819460    0.364204   -1.190947 
| 10> C        1.490903   -0.994938   -1.162590 
| 11> C        1.450197   -1.406167    0.225985 
| 12> C        1.875844   -0.290195    1.023097 
| 13> C        2.052625    0.814608    0.164170 
| 14> H       -0.394638    1.150210    2.498372 
| 15> H       -1.993156    0.794195    1.837094 
| 16> H       -1.008781   -0.505981    2.508304 
| 17> H        1.977900   -0.288415    2.097324 
| 18> H        2.352296    1.808383    0.458691 
| 19> H        1.885000    0.981073   -2.074563 
| 20> H        1.275763   -1.618283   -2.016436 
| 21> H        1.275639   -2.406893    0.589421 
| 22> C       -1.335861    2.101294   -0.927849 
| 23> H       -0.822201    1.778454    0.045587 
| 24> H       -0.969200    3.125001   -0.997930 
| 25> H       -1.110952    1.579089   -1.850904 
| 26> H       -2.401764    2.084149   -0.716661 
| 27> P       -1.870306   -1.156932   -0.405763 
| 28> H       -1.625569   -2.441008   -0.924735 
| 29> H       -2.747711   -1.466666    0.650785 
| 30> H       -2.792266   -0.681495   -1.360892 
| 31> *
| 32> 
| 33> %maxcore 5000
| 34> 
| 35> %pal
| 36> nprocs = 24
| 37> end
| 38> 
| 39> 
| 40>                          ****END OF INPUT****
================================================================================

                       ****************************
                       * Single Point Calculation *
                       ****************************

---------------------------------
CARTESIAN COORDINATES (ANGSTROEM)
---------------------------------
  Ir    -0.040708    0.096324    0.064455
  C     -0.971708    0.418734    1.931461
  C      1.819460    0.364204   -1.190947
  C      1.490903   -0.994938   -1.162590
  C      1.450197   -1.406167    0.225985
  C      1.875844   -0.290195    1.023097
  C      2.052625    0.814608    0.164170
  H     -0.394638    1.150210    2.498372
  H     -1.993156    0.794195    1.837094
  H     -1.008781   -0.505981    2.508304
  H      1.977900   -0.288415    2.097324
  H      2.352296    1.808383    0.458691
  H      1.885000    0.981073   -2.074563
  H      1.275763   -1.618283   -2.016436
  H      1.275639   -2.406893    0.589421
  C     -1.335861    2.101294   -0.927849
  H     -0.822201    1.778454    0.045587
  H     -0.969200    3.125001   -0.997930
  H     -1.110952    1.579089   -1.850904
  H     -2.401764    2.084149   -0.716661
  P     -1.870306   -1.156932   -0.405763
  H     -1.625569   -2.441008   -0.924735
  H     -2.747711   -1.466666    0.650785
  H     -2.792266   -0.681495   -1.360892

----------------------------
CARTESIAN COORDINATES (A.U.)
----------------------------
  NO LB      ZA    FRAG     MASS         X           Y           Z
   0 Ir   17.0000*   0   192.220   -0.076927    0.182026    0.121802
   1 C     6.0000    0    12.011   -1.836262    0.791293    3.649932
   2 C     6.0000    0    12.011    3.438281    0.688246   -2.250564
   3 C     6.0000    0    12.011    2.817398   -1.880160   -2.196977
   4 C     6.0000    0    12.011    2.740475   -2.657271    0.427050
   5 C     6.0000    0    12.011    3.544831   -0.548389    1.933373
   6 C     6.0000    0    12.011    3.878899    1.539386    0.310236
   7 H     1.0000    0     1.008   -0.745758    2.173582    4.721239
   8 H     1.0000    0     1.008   -3.766519    1.500811    3.471605
   9 H     1.0000    0     1.008   -1.906320   -0.956166    4.740008
  10 H     1.0000    0     1.008    3.737689   -0.545025    3.963368
  11 H     1.0000    0     1.008    4.445195    3.417349    0.866800
  12 H     1.0000    0     1.008    3.562134    1.853959   -3.920356
  13 H     1.0000    0     1.008    2.410843   -3.058112   -3.810512
  14 H     1.0000    0     1.008    2.410608   -4.548369    1.113844
  15 C     6.0000    0    12.011   -2.524411    3.970870   -1.753381
  16 H     1.0000    0     1.008   -1.553735    3.360791    0.086147
  17 H     1.0000    0     1.008   -1.831523    5.905396   -1.885814
  18 H     1.0000    0     1.008   -2.099395    2.984046   -3.497702
  19 H     1.0000    0     1.008   -4.538676    3.938471   -1.354293
  20 P    15.0000    0    30.974   -3.534366   -2.186285   -0.766781
  21 H     1.0000    0     1.008   -3.071880   -4.612837   -1.747496
  22 H     1.0000    0     1.008   -5.192421   -2.771597    1.229805
  23 H     1.0000    0     1.008   -5.276618   -1.287839   -2.571713
* core charge reduced due to ECP

--------------------------------
INTERNAL COORDINATES (ANGSTROEM)
--------------------------------
 Ir     0   0   0     0.000000000000     0.00000000     0.00000000
 C      1   0   0     2.111023593458     0.00000000     0.00000000
 C      1   2   0     2.260092667177   146.73423200     0.00000000
 C      3   1   2     1.398578134343    71.34923459   124.48758774
 C      4   3   1     1.448760435511   107.57049610   303.04956045
 C      5   4   3     1.435951396788   107.64531964   355.07564215
 C      6   5   4     1.410530673931   107.92907410     5.29699572
 H      2   1   3     1.090621384990   109.19606122    14.65305585
 H      2   1   3     1.092351642061   112.86021160   134.78801588
 H      2   1   3     1.090513679512   110.68968961   255.68292322
 H      6   5   4     1.079065448926   125.58701144   181.68842364
 H      7   6   5     1.078950452202   126.15761453   178.88712284
 H      3   1   2     1.079629607883   124.91098388   245.73915043
 H      4   3   1     1.078840674215   126.32038968   121.28422411
 H      5   4   3     1.078892371155   126.20641329   183.37512096
 C      1   2   3     2.584955168417    90.00449073   258.72145129
 H     16   1   2     1.147017832161    39.78355857    37.15076720
 H     16   1   2     1.089645656776   125.78795687    94.36583538
 H     16   1   2     1.084118376069    81.33199921   201.76799442
 H     16   1   2     1.086758265567   113.86513983   311.17262068
 P      1   2   3     2.266976932098    84.94835014   171.89847696
 H     21   1   2     1.406442074786   116.15696426   229.44369795
 H     21   1   2     1.407859496216   117.96560652   349.01392592
 H     21   1   2     1.410078717381   118.80223524   110.21613585

---------------------------
INTERNAL COORDINATES (A.U.)
---------------------------
 Ir     0   0   0     0.000000000000     0.00000000     0.00000000
 C      1   0   0     3.989256453882     0.00000000     0.00000000
 C      1   2   0     4.270956178248   146.73423200     0.00000000
 C      3   1   2     2.642929650799    71.34923459   124.48758774
 C      4   3   1     2.737760456776   107.57049610   303.04956045
 C      5   4   3     2.713554881551   107.64531964   355.07564215
 C      6   5   4     2.665516677224   107.92907410     5.29699572
 H      2   1   3     2.060975733429   109.19606122    14.65305585
 H      2   1   3     2.064245445435   112.86021160   134.78801588
 H      2   1   3     2.060772199573   110.68968961   255.68292322
 H      6   5   4     2.039138179046   125.58701144   181.68842364
 H      7   6   5     2.038920866732   126.15761453   178.88712284
 H      3   1   2     2.040204284971   124.91098388   245.73915043
 H      4   3   1     2.038713416402   126.32038968   121.28422411
 H      5   4   3     2.038811109459   126.20641329   183.37512096
 C      1   2   3     4.884857336772    90.00449073   258.72145129
 H     16   1   2     2.167549573509    39.78355857    37.15076720
 H     16   1   2     2.059131874324   125.78795687    94.36583538
 H     16   1   2     2.048686827522    81.33199921   201.76799442
 H     16   1   2     2.053675495697   113.86513983   311.17262068
 P      1   2   3     4.283965553582    84.94835014   171.89847696
 H     21   1   2     2.657790344570   116.15696426   229.44369795
 H     21   1   2     2.660468882888   117.96560652   349.01392592
 H     21   1   2     2.664662603120   118.80223524   110.21613585

---------------------
BASIS SET INFORMATION
---------------------
There are 4 groups of distinct atoms

 Group   1 Type Ir  : 8s8p6d2f1g contracted to 6s5p3d2f1g pattern {311111/41111/411/11/1}
 Group   2 Type C   : 12s6p3d1f contracted to 6s3p3d1f pattern {621111/411/111/1}
 Group   3 Type H   : 5s3p1d contracted to 3s3p1d pattern {311/111/1}
 Group   4 Type P   : 15s9p4d1f contracted to 6s5p4d1f pattern {732111/51111/1111/1}

Atom   0Ir   basis set group =>   1
Atom   1C    basis set group =>   2
Atom   2C    basis set group =>   2
Atom   3C    basis set group =>   2
Atom   4C    basis set group =>   2
Atom   5C    basis set group =>   2
Atom   6C    basis set group =>   2
Atom   7H    basis set group =>   3
Atom   8H    basis set group =>   3
Atom   9H    basis set group =>   3
Atom  10H    basis set group =>   3
Atom  11H    basis set group =>   3
Atom  12H    basis set group =>   3
Atom  13H    basis set group =>   3
Atom  14H    basis set group =>   3
Atom  15C    basis set group =>   2
Atom  16H    basis set group =>   3
Atom  17H    basis set group =>   3
Atom  18H    basis set group =>   3
Atom  19H    basis set group =>   3
Atom  20P    basis set group =>   4
Atom  21H    basis set group =>   3
Atom  22H    basis set group =>   3
Atom  23H    basis set group =>   3
---------------------------------
AUXILIARY/C BASIS SET INFORMATION
---------------------------------
There are 4 groups of distinct atoms

 Group   1 Type Ir  : 9s9p8d5f4g3h1i contracted to 9s9p8d5f4g3h1i pattern {111111111/111111111/11111111/11111/1111/111/1}
 Group   2 Type C   : 9s7p6d4f1g contracted to 9s7p5d4f1g pattern {111111111/1111111/21111/1111/1}
 Group   3 Type H   : 5s4p3d1f contracted to 5s4p3d1f pattern {11111/1111/111/1}
 Group   4 Type P   : 12s9p8d6f2g contracted to 12s9p8d6f2g pattern {111111111111/111111111/11111111/111111/11}

Atom   0Ir   basis set group =>   1
Atom   1C    basis set group =>   2
Atom   2C    basis set group =>   2
Atom   3C    basis set group =>   2
Atom   4C    basis set group =>   2
Atom   5C    basis set group =>   2
Atom   6C    basis set group =>   2
Atom   7H    basis set group =>   3
Atom   8H    basis set group =>   3
Atom   9H    basis set group =>   3
Atom  10H    basis set group =>   3
Atom  11H    basis set group =>   3
Atom  12H    basis set group =>   3
Atom  13H    basis set group =>   3
Atom  14H    basis set group =>   3
Atom  15C    basis set group =>   2
Atom  16H    basis set group =>   3
Atom  17H    basis set group =>   3
Atom  18H    basis set group =>   3
Atom  19H    basis set group =>   3
Atom  20P    basis set group =>   4
Atom  21H    basis set group =>   3
Atom  22H    basis set group =>   3
Atom  23H    basis set group =>   3
----------------------------------
AUXILIARY/JK BASIS SET INFORMATION
----------------------------------
There are 4 groups of distinct atoms

 Group   1 Type Ir  : 13s12p11d9f5g3h2i contracted to 11s9p9d7f4g3h2i pattern {31111111111/411111111/311111111/3111111/2111/111/11}
 Group   2 Type C   : 14s10p6d2f1g contracted to 10s8p5d1f1g pattern {5111111111/31111111/21111/2/1}
 Group   3 Type H   : 4s2p2d contracted to 2s2p2d pattern {31/11/11}
 Group   4 Type P   : 16s12p10d4f1g contracted to 13s11p9d4f1g pattern {4111111111111/21111111111/211111111/1111/1}

Atom   0Ir   basis set group =>   1
Atom   1C    basis set group =>   2
Atom   2C    basis set group =>   2
Atom   3C    basis set group =>   2
Atom   4C    basis set group =>   2
Atom   5C    basis set group =>   2
Atom   6C    basis set group =>   2
Atom   7H    basis set group =>   3
Atom   8H    basis set group =>   3
Atom   9H    basis set group =>   3
Atom  10H    basis set group =>   3
Atom  11H    basis set group =>   3
Atom  12H    basis set group =>   3
Atom  13H    basis set group =>   3
Atom  14H    basis set group =>   3
Atom  15C    basis set group =>   2
Atom  16H    basis set group =>   3
Atom  17H    basis set group =>   3
Atom  18H    basis set group =>   3
Atom  19H    basis set group =>   3
Atom  20P    basis set group =>   4
Atom  21H    basis set group =>   3
Atom  22H    basis set group =>   3
Atom  23H    basis set group =>   3
-------------------------
ECP PARAMETER INFORMATION
-------------------------

 Group 1, Type Ir ECP Def2-ECP (replacing 60 core electrons, lmax=3)

Atom   0Ir   ECP group =>   1



           ************************************************************
           *        Program running with 24 parallel MPI-processes    *
           *              working on a common directory               *
           ************************************************************
------------------------------------------------------------------------------
                           ORCA GTO INTEGRAL CALCULATION
                           -- RI-GTO INTEGRALS CHOSEN --
------------------------------------------------------------------------------

                         BASIS SET STATISTICS AND STARTUP INFO

Gaussian basis set:
 # of primitive gaussian shells          ...  343
 # of primitive gaussian functions       ...  803
 # of contracted shells                  ...  229
 # of contracted basis functions         ...  621
 Highest angular momentum                ...    4
 Maximum contraction depth               ...    7
Auxiliary gaussian basis set:
 # of primitive gaussian shells          ...  449
 # of primitive gaussian functions       ... 1389
 # of contracted shells                  ...  348
 # of contracted aux-basis functions     ... 1150
 Highest angular momentum                ...    6
 Maximum contraction depth               ...    5
Ratio of auxiliary to basis functions    ...  1.85
Integral package used                  ... LIBINT
 One Electron integrals                  
   ECP integrals                         ... done
 Ordering auxiliary basis shells         ... done
 Integral threshhold             Thresh  ...  1.000e-10
 Primitive cut-off               TCut    ...  1.000e-11
 Pre-screening matrix                    ... done
 Shell pair data                         ... 
 Ordering of the shell pairs             ... done (   0.004 sec) 24005 of 26335 pairs
 Determination of significant pairs      ... done (   0.000 sec)
 Creation of shell pair data             ... done (   0.002 sec)
 Storage of shell pair data              ... done (   0.008 sec)
 Shell pair data done in (   0.015 sec)
 Computing two index integrals           ... done
 Cholesky decomposition of the V-matrix  ... done


Timings:
 Total evaluation time                   ...   2.685 sec (  0.045 min)
 One electron matrix time                ...   2.258 sec (  0.038 min) = 84.1%
 Schwartz matrix evaluation time         ...   0.236 sec (  0.004 min) =  8.8%
 Two index repulsion integral time       ...   0.083 sec (  0.001 min) =  3.1%
 Cholesky decomposition of V             ...   0.060 sec (  0.001 min) =  2.2%
 Three index repulsion integral time     ...   0.000 sec (  0.000 min) =  0.0%



           ************************************************************
           *        Program running with 24 parallel MPI-processes    *
           *              working on a common directory               *
           ************************************************************
-------------------------------------------------------------------------------
                                 ORCA SCF
-------------------------------------------------------------------------------

------------
SCF SETTINGS
------------
Hamiltonian:
 Density Functional     Method          .... DFT(GTOs)
 Exchange Functional    Exchange        .... B88
   X-Alpha parameter    XAlpha          ....  0.666667
   Becke's b parameter  XBeta           ....  0.004200
 Correlation Functional Correlation     .... LYP
 LDA part of GGA corr.  LDAOpt          .... VWN-5
 Gradients option       PostSCFGGA      .... off
 Hybrid DFT is turned on
   Fraction HF Exchange ScalHFX         ....  0.710000
   Scaling of DF-GGA-X  ScalDFX         ....  0.290000
   Scaling of DF-GGA-C  ScalDFC         ....  0.540000
   Scaling of DF-LDA-C  ScalLDAC        ....  0.540000
   Perturbative correction              ....  1.000000
   Density functional embedding theory  .... OFF
 RI-approximation to the Coulomb term is turned on
   Number of auxiliary basis functions  .... 1150
   RI-JK (J+K treated both via RI)      .... on


General Settings:
 Integral files         IntName         .... TMB31_C1
 Hartree-Fock type      HFTyp           .... RHF
 Total Charge           Charge          ....    1
 Multiplicity           Mult            ....    1
 Number of Electrons    NEL             ....   88
 Basis Dimension        Dim             ....  621
 Nuclear Repulsion      ENuc            ....    705.0157848725 Eh

Convergence Acceleration:
 DIIS                   CNVDIIS         .... on
   Start iteration      DIISMaxIt       ....    12
   Startup error        DIISStart       ....  0.200000
   # of expansion vecs  DIISMaxEq       ....     5
   Bias factor          DIISBfac        ....   1.050
   Max. coefficient     DIISMaxC        ....  10.000
 Newton-Raphson         CNVNR           .... off
 SOSCF                  CNVSOSCF        .... off
 Level Shifting         CNVShift        .... on
   Level shift para.    LevelShift      ....    0.2500
   Turn off err/grad.   ShiftErr        ....    0.0010
 Zerner damping         CNVZerner       .... off
 Static damping         CNVDamp         .... on
   Fraction old density DampFac         ....    0.7000
   Max. Damping (<1)    DampMax         ....    0.9800
   Min. Damping (>=0)   DampMin         ....    0.0000
   Turn off err/grad.   DampErr         ....    0.1000
 Fernandez-Rico         CNVRico         .... off

SCF Procedure:
 Maximum # iterations   MaxIter         ....   125
 SCF integral mode      SCFMode         .... Direct
   Integral package                     .... LIBINT
 Reset frequency        DirectResetFreq ....    20
 Integral Threshold     Thresh          ....  1.000e-10 Eh
 Primitive CutOff       TCut            ....  1.000e-11 Eh

Convergence Tolerance:
 Convergence Check Mode ConvCheckMode   .... Total+1el-Energy
 Convergence forced     ConvForced      .... 0
 Energy Change          TolE            ....  1.000e-06 Eh
 1-El. energy change                    ....  1.000e-03 Eh
 DIIS Error             TolErr          ....  1.000e-06


Diagonalization of the overlap matrix:
Smallest eigenvalue                        ... 9.746e-07
Time for diagonalization                   ...    0.057 sec
Threshold for overlap eigenvalues          ... 1.000e-08
Number of eigenvalues below threshold      ... 0
Time for construction of square roots      ...    0.059 sec
Total time needed                          ...    0.118 sec

-------------------
DFT GRID GENERATION
-------------------

General Integration Accuracy     IntAcc      ...  4.670
Radial Grid Type                 RadialGrid  ... Gauss-Chebyshev
Angular Grid (max. acc.)         AngularGrid ... Lebedev-302
Angular grid pruning method      GridPruning ... 3 (G Style)
Weight generation scheme         WeightScheme... Becke
Basis function cutoff            BFCut       ...    1.0000e-10
Integration weight cutoff        WCut        ...    1.0000e-14
Grids for H and He will be reduced by one unit

# of grid points (after initial pruning)     ... 112892 (   0.0 sec)
# of grid points (after weights+screening)   ... 100084 (   0.1 sec)
nearest neighbour list constructed           ...    0.0 sec
Grid point re-assignment to atoms done       ...    0.0 sec
Grid point division into batches done        ...    0.3 sec
Reduced shell lists constructed in    0.6 sec

Total number of grid points                  ...   100084
Total number of batches                      ...     1575
Average number of points per batch           ...       63
Average number of grid points per atom       ...     4170
Average number of shells per batch           ...   180.76 (78.94%)
Average number of basis functions per batch  ...   509.24 (82.00%)
Average number of large shells per batch     ...   149.13 (82.50%)
Average number of large basis fcns per batch ...   414.66 (81.43%)
Average number of aux-shells per batch       ...   180.76 (51.94%)
Average number of aux functions per batch    ...   509.24 (44.28%)
Maximum spatial batch extension              ...   1.94,  1.87,  1.92 au
Average spatial batch extension              ...   0.05,  0.05,  0.05 au

Time for grid setup =    0.682 sec

------------------------------
INITIAL GUESS: MODEL POTENTIAL
------------------------------
Loading Hartree-Fock densities                     ... done
  calling /sw/apps/orca/orca_4_2_0_linux_x86-64_openmpi314/orca TMB31_C1_atom77.inp > TMB31_C1_atom77.out in order to generate an atomic fitting density for atom 0 (Ir with ECP) on-the-fly... 
    atom 0 (Ir), assumed electronic state with S=4: 1s2 2s2 2p6 3s2 3p6 4s2 3d10 4p6 5s2 4d10 5p6 6s2 4f14 5d7           ... done
Calculating cut-offs                               ... done
Setting up the integral package                    ... done
Initializing the effective Hamiltonian             ... done
Starting the Coulomb interaction                   ... done (   0.0 sec)
Reading the grid                                   ... done
Mapping shells                                     ... done
Starting the XC term evaluation                    ... done (   0.2 sec)
  promolecular density results
     # of electrons  =    148.994632463
     EX              =   -413.763990103
     EC              =     -0.799643906
     EX+EC           =   -414.563634009
Transforming the Hamiltonian                       ... done (   0.0 sec)
Diagonalizing the Hamiltonian                      ... done (   0.1 sec)
Back transforming the eigenvectors                 ... done (   0.0 sec)
Now organizing SCF variables                       ... done
                      ------------------
                      INITIAL GUESS DONE (   2.4 sec)
                      ------------------
--------------
SCF ITERATIONS
--------------
ITER       Energy         Delta-E        Max-DP      RMS-DP      [F,P]     Damp
  0   -714.5186704258   0.000000000000159.30079957  0.54452495  1.0027061 0.7000
  1   -714.4736260050   0.04504442073119.03902437  0.08828163  0.4398493 0.7000
                               ***Turning on DIIS***
  2   -714.7908925971  -0.31726659206547.34125722  0.17830298  0.1900954 0.7000
  3   -717.7556709727  -2.96477837556734.58740176  0.12822761  0.1189659 0.7000
  4   -718.4045110530  -0.64884008034724.30206825  0.09000236  0.1447928 0.7000
  5   -718.6459066336  -0.24139558059117.03017175  0.06304612  0.1628209 0.7000
  6   -718.8434630640  -0.19755643038611.92953633  0.04415095  0.1531211 0.7000
  7   -719.0009452886  -0.157482224580 8.35727567  0.03091999  0.1391607 0.7000
  8   -719.1213038871  -0.120358598486 5.83935659  0.02162764  0.1364569 0.7000
  9   -719.2125007872  -0.091196900174 4.06816920  0.01512890  0.1320448 0.7000
 10   -719.2651129012  -0.052612114015 2.80107009  0.01055284  0.1140310 0.7000
 11   -719.2849566737  -0.019843772467 6.42480465  0.02450536  0.0762625 0.0000
 12   -719.5366286065  -0.251671932779 0.15018969  0.00114149  0.0598235 0.0000
 13   -719.5818825452  -0.045253938743 0.02644265  0.00029543  0.0254924 0.0000
 14   -719.5869597417  -0.005077196420 0.00786903  0.00009463  0.0046275 0.0000
 15   -719.5871705700  -0.000210828313 0.00502794  0.00004744  0.0025223 0.0000
 16   -719.5872313011  -0.000060731126 0.00531668  0.00004354  0.0007254 0.0000
 17   -719.5872518194  -0.000020518260 0.00299596  0.00001804  0.0004130 0.0000
 18   -719.5872550967  -0.000003277366 0.00293921  0.00001669  0.0002648 0.0000
 19   -719.5872560258  -0.000000929097 0.00580771  0.00002920  0.0001377 0.0000
                 **** Energy Check signals convergence ****

               *****************************************************
               *                     SUCCESS                       *
               *           SCF CONVERGED AFTER  20 CYCLES          *
               *****************************************************


----------------
TOTAL SCF ENERGY
----------------

Total Energy       :         -719.58725626 Eh          -19580.96472 eV

Components:
Nuclear Repulsion  :          705.01578487 Eh           19184.45483 eV
Electronic Energy  :        -1424.60304114 Eh          -38765.41955 eV
One Electron Energy:        -2409.10964541 Eh          -65555.20621 eV
Two Electron Energy:          984.50660427 Eh           26789.78667 eV

Virial components:
Potential Energy   :        -1369.52162934 Eh          -37266.57813 eV
Kinetic Energy     :          649.93437308 Eh           17685.61341 eV
Virial Ratio       :            2.10716910


DFT components:
N(Alpha)           :       43.999849211462 electrons
N(Beta)            :       43.999849211462 electrons
N(Total)           :       87.999698422924 electrons
E(X)               :      -21.470056099523 Eh       
E(C)               :       -1.637052741809 Eh       
E(XC)              :      -23.107108841332 Eh       
DFET-embed. en.    :        0.000000000000 Eh       

---------------
SCF CONVERGENCE
---------------

  Last Energy change         ...   -2.3678e-07  Tolerance :   1.0000e-06
  Last MAX-Density change    ...    4.1756e-03  Tolerance :   1.0000e-05
  Last RMS-Density change    ...    1.9331e-05  Tolerance :   1.0000e-06
  Last DIIS Error            ...    7.2096e-05  Tolerance :   1.0000e-06

             **** THE GBW FILE WAS UPDATED (TMB31_C1.gbw) ****
             **** DENSITY FILE WAS UPDATED (TMB31_C1.scfp) ****
             **** ENERGY FILE WAS UPDATED (TMB31_C1.en.tmp) ****
             **** THE GBW FILE WAS UPDATED (TMB31_C1.gbw) ****
             **** DENSITY FILE WAS UPDATED (TMB31_C1.scfp) ****
----------------
ORBITAL ENERGIES
----------------

  NO   OCC          E(Eh)            E(eV) 
   0   2.0000     -79.102495     -2152.4883 
   1   2.0000     -11.048372      -300.6415 
   2   2.0000     -11.045094      -300.5523 
   3   2.0000     -11.043851      -300.5185 
   4   2.0000     -11.042454      -300.4805 
   5   2.0000     -11.037821      -300.3544 
   6   2.0000     -11.013575      -299.6946 
   7   2.0000     -10.964522      -298.3598 
   8   2.0000      -7.340682      -199.7501 
   9   2.0000      -5.332626      -145.1081 
  10   2.0000      -5.332426      -145.1027 
  11   2.0000      -5.331019      -145.0644 
  12   2.0000      -4.215408      -114.7071 
  13   2.0000      -2.468061       -67.1593 
  14   2.0000      -2.452514       -66.7363 
  15   2.0000      -2.444631       -66.5218 
  16   2.0000      -1.261245       -34.3202 
  17   2.0000      -1.067271       -29.0419 
  18   2.0000      -1.055510       -28.7219 
  19   2.0000      -1.036368       -28.2010 
  20   2.0000      -0.974675       -26.5222 
  21   2.0000      -0.953764       -25.9532 
  22   2.0000      -0.853467       -23.2240 
  23   2.0000      -0.851097       -23.1595 
  24   2.0000      -0.830911       -22.6102 
  25   2.0000      -0.716546       -19.4982 
  26   2.0000      -0.699879       -19.0447 
  27   2.0000      -0.688763       -18.7422 
  28   2.0000      -0.686927       -18.6922 
  29   2.0000      -0.679776       -18.4977 
  30   2.0000      -0.672823       -18.3084 
  31   2.0000      -0.660172       -17.9642 
  32   2.0000      -0.656590       -17.8667 
  33   2.0000      -0.654864       -17.8197 
  34   2.0000      -0.648945       -17.6587 
  35   2.0000      -0.623615       -16.9694 
  36   2.0000      -0.618825       -16.8391 
  37   2.0000      -0.604186       -16.4407 
  38   2.0000      -0.563028       -15.3208 
  39   2.0000      -0.531875       -14.4731 
  40   2.0000      -0.528273       -14.3750 
  41   2.0000      -0.511009       -13.9053 
  42   2.0000      -0.484090       -13.1728 
  43   2.0000      -0.447294       -12.1715 
  44   0.0000      -0.123825        -3.3694 
  45   0.0000      -0.087672        -2.3857 
  46   0.0000      -0.078706        -2.1417 
  47   0.0000      -0.071280        -1.9396 
  48   0.0000      -0.068410        -1.8615 
  49   0.0000      -0.065097        -1.7714 
  50   0.0000      -0.051473        -1.4006 
  51   0.0000      -0.048793        -1.3277 
  52   0.0000      -0.030152        -0.8205 
  53   0.0000      -0.027901        -0.7592 
  54   0.0000      -0.027325        -0.7436 
  55   0.0000      -0.022717        -0.6182 
  56   0.0000      -0.020206        -0.5498 
  57   0.0000      -0.015138        -0.4119 
  58   0.0000      -0.006002        -0.1633 
  59   0.0000      -0.001049        -0.0285 
  60   0.0000       0.005229         0.1423 
  61   0.0000       0.014558         0.3962 
  62   0.0000       0.019956         0.5430 
  63   0.0000       0.023680         0.6444 
  64   0.0000       0.029888         0.8133 
  65   0.0000       0.033332         0.9070 
  66   0.0000       0.036734         0.9996 
  67   0.0000       0.045189         1.2296 
  68   0.0000       0.050105         1.3634 
  69   0.0000       0.057044         1.5522 
  70   0.0000       0.060083         1.6350 
  71   0.0000       0.061143         1.6638 
  72   0.0000       0.064337         1.7507 
  73   0.0000       0.066987         1.8228 
  74   0.0000       0.074443         2.0257 
  75   0.0000       0.083276         2.2660 
  76   0.0000       0.086966         2.3665 
  77   0.0000       0.090473         2.4619 
  78   0.0000       0.097636         2.6568 
  79   0.0000       0.105300         2.8654 
  80   0.0000       0.118167         3.2155 
  81   0.0000       0.124234         3.3806 
  82   0.0000       0.126876         3.4525 
  83   0.0000       0.128069         3.4849 
  84   0.0000       0.132276         3.5994 
  85   0.0000       0.141411         3.8480 
  86   0.0000       0.145087         3.9480 
  87   0.0000       0.148031         4.0281 
  88   0.0000       0.154814         4.2127 
  89   0.0000       0.160485         4.3670 
  90   0.0000       0.169762         4.6195 
  91   0.0000       0.174757         4.7554 
  92   0.0000       0.183781         5.0009 
  93   0.0000       0.190047         5.1714 
  94   0.0000       0.190821         5.1925 
  95   0.0000       0.194764         5.2998 
  96   0.0000       0.200427         5.4539 
  97   0.0000       0.200905         5.4669 
  98   0.0000       0.203408         5.5350 
  99   0.0000       0.208146         5.6639 
 100   0.0000       0.211469         5.7544 
 101   0.0000       0.214769         5.8442 
 102   0.0000       0.216165         5.8821 
 103   0.0000       0.224915         6.1202 
 104   0.0000       0.228672         6.2225 
 105   0.0000       0.232252         6.3199 
 106   0.0000       0.233863         6.3637 
 107   0.0000       0.239047         6.5048 
 108   0.0000       0.242467         6.5979 
 109   0.0000       0.245747         6.6871 
 110   0.0000       0.246958         6.7201 
 111   0.0000       0.255296         6.9469 
 112   0.0000       0.261751         7.1226 
 113   0.0000       0.262404         7.1404 
 114   0.0000       0.267515         7.2795 
 115   0.0000       0.274469         7.4687 
 116   0.0000       0.277781         7.5588 
 117   0.0000       0.279370         7.6020 
 118   0.0000       0.282769         7.6945 
 119   0.0000       0.283023         7.7014 
 120   0.0000       0.289687         7.8828 
 121   0.0000       0.292650         7.9634 
 122   0.0000       0.296865         8.0781 
 123   0.0000       0.303914         8.2699 
 124   0.0000       0.306698         8.3457 
 125   0.0000       0.309800         8.4301 
 126   0.0000       0.314475         8.5573 
 127   0.0000       0.316495         8.6123 
 128   0.0000       0.325341         8.8530 
 129   0.0000       0.325894         8.8680 
 130   0.0000       0.330763         9.0005 
 131   0.0000       0.333986         9.0882 
 132   0.0000       0.339623         9.2416 
 133   0.0000       0.349487         9.5100 
 134   0.0000       0.354696         9.6518 
 135   0.0000       0.356489         9.7006 
 136   0.0000       0.364630         9.9221 
 137   0.0000       0.366217         9.9653 
 138   0.0000       0.368322        10.0225 
 139   0.0000       0.372802        10.1444 
 140   0.0000       0.380211        10.3461 
 141   0.0000       0.384362        10.4590 
 142   0.0000       0.385152        10.4805 
 143   0.0000       0.386700        10.5227 
 144   0.0000       0.395848        10.7716 
 145   0.0000       0.401582        10.9276 
 146   0.0000       0.407754        11.0955 
 147   0.0000       0.411048        11.1852 
 148   0.0000       0.415269        11.3001 
 149   0.0000       0.417585        11.3631 
 150   0.0000       0.423605        11.5269 
 151   0.0000       0.428228        11.6527 
 152   0.0000       0.429709        11.6930 
 153   0.0000       0.433329        11.7915 
 154   0.0000       0.444753        12.1023 
 155   0.0000       0.447972        12.1899 
 156   0.0000       0.454178        12.3588 
 157   0.0000       0.461609        12.5610 
 158   0.0000       0.466759        12.7011 
 159   0.0000       0.473060        12.8726 
 160   0.0000       0.479527        13.0486 
 161   0.0000       0.482256        13.1229 
 162   0.0000       0.492427        13.3996 
 163   0.0000       0.495039        13.4707 
 164   0.0000       0.502262        13.6672 
 165   0.0000       0.504023        13.7152 
 166   0.0000       0.508769        13.8443 
 167   0.0000       0.512868        13.9558 
 168   0.0000       0.517722        14.0879 
 169   0.0000       0.522225        14.2105 
 170   0.0000       0.527695        14.3593 
 171   0.0000       0.535475        14.5710 
 172   0.0000       0.539611        14.6836 
 173   0.0000       0.544453        14.8153 
 174   0.0000       0.557936        15.1822 
 175   0.0000       0.565998        15.4016 
 176   0.0000       0.572649        15.5826 
 177   0.0000       0.577511        15.7149 
 178   0.0000       0.584269        15.8988 
 179   0.0000       0.589851        16.0507 
 180   0.0000       0.601998        16.3812 
 181   0.0000       0.607871        16.5410 
 182   0.0000       0.613907        16.7053 
 183   0.0000       0.615309        16.7434 
 184   0.0000       0.617662        16.8074 
 185   0.0000       0.626192        17.0395 
 186   0.0000       0.635319        17.2879 
 187   0.0000       0.638464        17.3735 
 188   0.0000       0.643683        17.5155 
 189   0.0000       0.656017        17.8511 
 190   0.0000       0.658054        17.9066 
 191   0.0000       0.662696        18.0329 
 192   0.0000       0.666969        18.1491 
 193   0.0000       0.674627        18.3575 
 194   0.0000       0.680850        18.5269 
 195   0.0000       0.688227        18.7276 
 196   0.0000       0.689944        18.7743 
 197   0.0000       0.695045        18.9131 
 198   0.0000       0.701346        19.0846 
 199   0.0000       0.704139        19.1606 
 200   0.0000       0.708197        19.2710 
 201   0.0000       0.711427        19.3589 
 202   0.0000       0.716820        19.5057 
 203   0.0000       0.721179        19.6243 
 204   0.0000       0.727754        19.8032 
 205   0.0000       0.729789        19.8586 
 206   0.0000       0.733788        19.9674 
 207   0.0000       0.734768        19.9941 
 208   0.0000       0.741229        20.1699 
 209   0.0000       0.746941        20.3253 
 210   0.0000       0.753887        20.5143 
 211   0.0000       0.757320        20.6077 
 212   0.0000       0.767058        20.8727 
 213   0.0000       0.778931        21.1958 
 214   0.0000       0.793515        21.5926 
 215   0.0000       0.799821        21.7642 
 216   0.0000       0.800995        21.7962 
 217   0.0000       0.820390        22.3240 
 218   0.0000       0.831425        22.6242 
 219   0.0000       0.837987        22.8028 
 220   0.0000       0.852487        23.1974 
 221   0.0000       0.856759        23.3136 
 222   0.0000       0.860959        23.4279 
 223   0.0000       0.874436        23.7946 
 224   0.0000       0.892885        24.2966 
 225   0.0000       0.914634        24.8884 
 226   0.0000       0.917174        24.9576 
 227   0.0000       0.927397        25.2357 
 228   0.0000       0.930495        25.3201 
 229   0.0000       0.938655        25.5421 
 230   0.0000       0.946310        25.7504 
 231   0.0000       0.962106        26.1802 
 232   0.0000       0.965992        26.2860 
 233   0.0000       0.984642        26.7935 
 234   0.0000       0.990340        26.9485 
 235   0.0000       0.999018        27.1847 
 236   0.0000       1.003213        27.2988 
 237   0.0000       1.015679        27.6380 
 238   0.0000       1.037164        28.2227 
 239   0.0000       1.044759        28.4293 
 240   0.0000       1.058087        28.7920 
 241   0.0000       1.060817        28.8663 
 242   0.0000       1.080416        29.3996 
 243   0.0000       1.094601        29.7856 
 244   0.0000       1.098910        29.9029 
 245   0.0000       1.108849        30.1733 
 246   0.0000       1.115566        30.3561 
 247   0.0000       1.128796        30.7161 
 248   0.0000       1.154293        31.4099 
 249   0.0000       1.157891        31.5078 
 250   0.0000       1.169391        31.8207 
 251   0.0000       1.176718        32.0201 
 252   0.0000       1.186237        32.2792 
 253   0.0000       1.190725        32.4013 
 254   0.0000       1.199910        32.6512 
 255   0.0000       1.211557        32.9682 
 256   0.0000       1.221471        33.2379 
 257   0.0000       1.230428        33.4816 
 258   0.0000       1.234535        33.5934 
 259   0.0000       1.252363        34.0785 
 260   0.0000       1.258704        34.2511 
 261   0.0000       1.261300        34.3217 
 262   0.0000       1.273175        34.6449 
 263   0.0000       1.280287        34.8384 
 264   0.0000       1.292641        35.1746 
 265   0.0000       1.294940        35.2371 
 266   0.0000       1.300336        35.3839 
 267   0.0000       1.315737        35.8030 
 268   0.0000       1.327236        36.1159 
 269   0.0000       1.336349        36.3639 
 270   0.0000       1.347544        36.6685 
 271   0.0000       1.357619        36.9427 
 272   0.0000       1.374340        37.3977 
 273   0.0000       1.386830        37.7376 
 274   0.0000       1.390131        37.8274 
 275   0.0000       1.397040        38.0154 
 276   0.0000       1.401196        38.1285 
 277   0.0000       1.409393        38.3515 
 278   0.0000       1.414735        38.4969 
 279   0.0000       1.423133        38.7254 
 280   0.0000       1.430492        38.9257 
 281   0.0000       1.442572        39.2544 
 282   0.0000       1.449744        39.4495 
 283   0.0000       1.459716        39.7209 
 284   0.0000       1.464018        39.8380 
 285   0.0000       1.467368        39.9291 
 286   0.0000       1.471725        40.0477 
 287   0.0000       1.477298        40.1993 
 288   0.0000       1.478667        40.2366 
 289   0.0000       1.507822        41.0299 
 290   0.0000       1.516060        41.2541 
 291   0.0000       1.531521        41.6748 
 292   0.0000       1.555503        42.3274 
 293   0.0000       1.560243        42.4564 
 294   0.0000       1.563711        42.5507 
 295   0.0000       1.585290        43.1379 
 296   0.0000       1.595750        43.4226 
 297   0.0000       1.604814        43.6692 
 298   0.0000       1.612911        43.8895 
 299   0.0000       1.627922        44.2980 
 300   0.0000       1.634780        44.4846 
 301   0.0000       1.646934        44.8154 
 302   0.0000       1.648807        44.8663 
 303   0.0000       1.656555        45.0771 
 304   0.0000       1.665792        45.3285 
 305   0.0000       1.679546        45.7028 
 306   0.0000       1.682986        45.7964 
 307   0.0000       1.692663        46.0597 
 308   0.0000       1.694666        46.1142 
 309   0.0000       1.719145        46.7803 
 310   0.0000       1.726707        46.9861 
 311   0.0000       1.737335        47.2753 
 312   0.0000       1.758432        47.8494 
 313   0.0000       1.763757        47.9943 
 314   0.0000       1.772348        48.2281 
 315   0.0000       1.786369        48.6096 
 316   0.0000       1.808184        49.2032 
 317   0.0000       1.822274        49.5866 
 318   0.0000       1.824619        49.6504 
 319   0.0000       1.839684        50.0604 
 320   0.0000       1.851794        50.3899 
 321   0.0000       1.853361        50.4325 
 322   0.0000       1.870425        50.8969 
 323   0.0000       1.874688        51.0128 
 324   0.0000       1.899770        51.6954 
 325   0.0000       1.921621        52.2900 
 326   0.0000       1.933011        52.5999 
 327   0.0000       1.949160        53.0393 
 328   0.0000       1.958650        53.2976 
 329   0.0000       1.964869        53.4668 
 330   0.0000       1.972490        53.6742 
 331   0.0000       1.983386        53.9707 
 332   0.0000       1.988825        54.1187 
 333   0.0000       2.010563        54.7102 
 334   0.0000       2.035143        55.3791 
 335   0.0000       2.048218        55.7349 
 336   0.0000       2.057536        55.9884 
 337   0.0000       2.075222        56.4697 
 338   0.0000       2.081149        56.6309 
 339   0.0000       2.113115        57.5008 
 340   0.0000       2.130635        57.9775 
 341   0.0000       2.162947        58.8568 
 342   0.0000       2.168590        59.0103 
 343   0.0000       2.185636        59.4742 
 344   0.0000       2.203288        59.9545 
 345   0.0000       2.217048        60.3289 
 346   0.0000       2.229989        60.6811 
 347   0.0000       2.254469        61.3472 
 348   0.0000       2.286962        62.2314 
 349   0.0000       2.308331        62.8129 
 350   0.0000       2.346741        63.8581 
 351   0.0000       2.369227        64.4699 
 352   0.0000       2.390928        65.0604 
 353   0.0000       2.419876        65.8482 
 354   0.0000       2.460031        66.9408 
 355   0.0000       2.499492        68.0146 
 356   0.0000       2.555080        69.5273 
 357   0.0000       2.563645        69.7603 
 358   0.0000       2.565264        69.8044 
 359   0.0000       2.602575        70.8197 
 360   0.0000       2.611053        71.0504 
 361   0.0000       2.642329        71.9014 
 362   0.0000       2.662990        72.4636 
 363   0.0000       2.687346        73.1264 
 364   0.0000       2.691688        73.2446 
 365   0.0000       2.732439        74.3535 
 366   0.0000       2.775573        75.5272 
 367   0.0000       2.805030        76.3288 
 368   0.0000       2.815920        76.6251 
 369   0.0000       2.833449        77.1021 
 370   0.0000       2.840058        77.2819 
 371   0.0000       2.849092        77.5277 
 372   0.0000       2.854643        77.6788 
 373   0.0000       2.863667        77.9243 
 374   0.0000       2.873401        78.1892 
 375   0.0000       2.884522        78.4918 
 376   0.0000       2.902330        78.9764 
 377   0.0000       2.908889        79.1549 
 378   0.0000       2.917293        79.3836 
 379   0.0000       2.924999        79.5933 
 380   0.0000       2.933024        79.8116 
 381   0.0000       2.942092        80.0584 
 382   0.0000       2.953262        80.3624 
 383   0.0000       2.962676        80.6185 
 384   0.0000       2.974447        80.9388 
 385   0.0000       2.983273        81.1790 
 386   0.0000       2.996029        81.5261 
 387   0.0000       3.014186        82.0202 
 388   0.0000       3.020448        82.1906 
 389   0.0000       3.029906        82.4479 
 390   0.0000       3.044743        82.8517 
 391   0.0000       3.064814        83.3978 
 392   0.0000       3.068098        83.4872 
 393   0.0000       3.083403        83.9037 
 394   0.0000       3.085390        83.9577 
 395   0.0000       3.099064        84.3298 
 396   0.0000       3.118142        84.8490 
 397   0.0000       3.123224        84.9872 
 398   0.0000       3.136205        85.3405 
 399   0.0000       3.148166        85.6660 
 400   0.0000       3.156702        85.8982 
 401   0.0000       3.169580        86.2487 
 402   0.0000       3.182945        86.6123 
 403   0.0000       3.204914        87.2102 
 404   0.0000       3.207440        87.2789 
 405   0.0000       3.222152        87.6792 
 406   0.0000       3.229085        87.8679 
 407   0.0000       3.245422        88.3124 
 408   0.0000       3.246586        88.3441 
 409   0.0000       3.259057        88.6835 
 410   0.0000       3.281189        89.2857 
 411   0.0000       3.292344        89.5892 
 412   0.0000       3.303280        89.8868 
 413   0.0000       3.310163        90.0741 
 414   0.0000       3.324552        90.4656 
 415   0.0000       3.332316        90.6769 
 416   0.0000       3.344806        91.0168 
 417   0.0000       3.356037        91.3224 
 418   0.0000       3.358317        91.3845 
 419   0.0000       3.364343        91.5484 
 420   0.0000       3.377806        91.9148 
 421   0.0000       3.389852        92.2426 
 422   0.0000       3.404892        92.6518 
 423   0.0000       3.412821        92.8676 
 424   0.0000       3.418618        93.0253 
 425   0.0000       3.426974        93.2527 
 426   0.0000       3.434746        93.4642 
 427   0.0000       3.441198        93.6398 
 428   0.0000       3.461790        94.2001 
 429   0.0000       3.468196        94.3744 
 430   0.0000       3.483608        94.7938 
 431   0.0000       3.496814        95.1531 
 432   0.0000       3.503648        95.3391 
 433   0.0000       3.514156        95.6250 
 434   0.0000       3.518568        95.7451 
 435   0.0000       3.526087        95.9497 
 436   0.0000       3.532059        96.1122 
 437   0.0000       3.543789        96.4314 
 438   0.0000       3.548122        96.5493 
 439   0.0000       3.555555        96.7516 
 440   0.0000       3.560427        96.8841 
 441   0.0000       3.569944        97.1431 
 442   0.0000       3.578181        97.3673 
 443   0.0000       3.588665        97.6525 
 444   0.0000       3.596211        97.8579 
 445   0.0000       3.613404        98.3257 
 446   0.0000       3.625210        98.6470 
 447   0.0000       3.628979        98.7495 
 448   0.0000       3.648231        99.2734 
 449   0.0000       3.655036        99.4586 
 450   0.0000       3.659823        99.5888 
 451   0.0000       3.679309       100.1191 
 452   0.0000       3.685590       100.2900 
 453   0.0000       3.690676       100.4284 
 454   0.0000       3.701139       100.7131 
 455   0.0000       3.711762       101.0022 
 456   0.0000       3.722312       101.2893 
 457   0.0000       3.730542       101.5132 
 458   0.0000       3.737364       101.6988 
 459   0.0000       3.744980       101.9061 
 460   0.0000       3.765836       102.4736 
 461   0.0000       3.774357       102.7055 
 462   0.0000       3.783683       102.9593 
 463   0.0000       3.791981       103.1850 
 464   0.0000       3.803739       103.5050 
 465   0.0000       3.806131       103.5701 
 466   0.0000       3.815469       103.8242 
 467   0.0000       3.825593       104.0997 
 468   0.0000       3.845961       104.6539 
 469   0.0000       3.861699       105.0822 
 470   0.0000       3.870476       105.3210 
 471   0.0000       3.896349       106.0251 
 472   0.0000       3.908337       106.3513 
 473   0.0000       3.915017       106.5330 
 474   0.0000       3.928732       106.9062 
 475   0.0000       3.945928       107.3742 
 476   0.0000       3.956724       107.6679 
 477   0.0000       3.956906       107.6729 
 478   0.0000       3.975357       108.1750 
 479   0.0000       3.986515       108.4786 
 480   0.0000       3.991205       108.6062 
 481   0.0000       3.999613       108.8350 
 482   0.0000       4.005256       108.9886 
 483   0.0000       4.010461       109.1302 
 484   0.0000       4.021103       109.4198 
 485   0.0000       4.039369       109.9168 
 486   0.0000       4.056029       110.3702 
 487   0.0000       4.071281       110.7852 
 488   0.0000       4.099466       111.5521 
 489   0.0000       4.106218       111.7359 
 490   0.0000       4.110570       111.8543 
 491   0.0000       4.118656       112.0743 
 492   0.0000       4.132702       112.4565 
 493   0.0000       4.141690       112.7011 
 494   0.0000       4.149652       112.9178 
 495   0.0000       4.168239       113.4236 
 496   0.0000       4.172887       113.5500 
 497   0.0000       4.179061       113.7180 
 498   0.0000       4.194209       114.1302 
 499   0.0000       4.203473       114.3823 
 500   0.0000       4.212789       114.6358 
 501   0.0000       4.226272       115.0027 
 502   0.0000       4.230629       115.1213 
 503   0.0000       4.244555       115.5002 
 504   0.0000       4.258279       115.8737 
 505   0.0000       4.266759       116.1044 
 506   0.0000       4.272713       116.2664 
 507   0.0000       4.276333       116.3649 
 508   0.0000       4.285406       116.6118 
 509   0.0000       4.294584       116.8616 
 510   0.0000       4.304465       117.1304 
 511   0.0000       4.310159       117.2854 
 512   0.0000       4.329777       117.8192 
 513   0.0000       4.332229       117.8859 
 514   0.0000       4.342148       118.1558 
 515   0.0000       4.347883       118.3119 
 516   0.0000       4.355468       118.5183 
 517   0.0000       4.367182       118.8371 
 518   0.0000       4.371508       118.9548 
 519   0.0000       4.386888       119.3733 
 520   0.0000       4.395746       119.6143 
 521   0.0000       4.405387       119.8767 
 522   0.0000       4.419828       120.2696 
 523   0.0000       4.430085       120.5487 
 524   0.0000       4.447575       121.0247 
 525   0.0000       4.449640       121.0809 
 526   0.0000       4.467112       121.5563 
 527   0.0000       4.479103       121.8826 
 528   0.0000       4.489160       122.1563 
 529   0.0000       4.496638       122.3597 
 530   0.0000       4.518947       122.9668 
 531   0.0000       4.528891       123.2374 
 532   0.0000       4.548322       123.7661 
 533   0.0000       4.569909       124.3535 
 534   0.0000       4.572833       124.4331 
 535   0.0000       4.597679       125.1092 
 536   0.0000       4.603254       125.2609 
 537   0.0000       4.631612       126.0326 
 538   0.0000       4.650418       126.5443 
 539   0.0000       4.662313       126.8680 
 540   0.0000       4.677119       127.2709 
 541   0.0000       4.692861       127.6992 
 542   0.0000       4.693890       127.7272 
 543   0.0000       4.726044       128.6022 
 544   0.0000       4.767887       129.7408 
 545   0.0000       4.780923       130.0955 
 546   0.0000       4.792908       130.4216 
 547   0.0000       4.839528       131.6903 
 548   0.0000       4.850334       131.9843 
 549   0.0000       4.868232       132.4713 
 550   0.0000       4.890941       133.0893 
 551   0.0000       4.898911       133.3061 
 552   0.0000       4.915727       133.7637 
 553   0.0000       4.929359       134.1347 
 554   0.0000       4.943196       134.5112 
 555   0.0000       4.955234       134.8388 
 556   0.0000       5.017545       136.5344 
 557   0.0000       5.050373       137.4276 
 558   0.0000       5.071078       137.9911 
 559   0.0000       5.081432       138.2728 
 560   0.0000       5.109408       139.0341 
 561   0.0000       5.165599       140.5631 
 562   0.0000       5.188631       141.1898 
 563   0.0000       5.209195       141.7494 
 564   0.0000       5.263644       143.2310 
 565   0.0000       5.283574       143.7733 
 566   0.0000       5.293515       144.0439 
 567   0.0000       5.312223       144.5529 
 568   0.0000       5.327117       144.9582 
 569   0.0000       5.338582       145.2702 
 570   0.0000       5.347846       145.5223 
 571   0.0000       5.352071       145.6372 
 572   0.0000       5.367796       146.0652 
 573   0.0000       5.390199       146.6748 
 574   0.0000       5.399717       146.9338 
 575   0.0000       5.405161       147.0819 
 576   0.0000       5.425429       147.6334 
 577   0.0000       5.448924       148.2727 
 578   0.0000       5.462942       148.6542 
 579   0.0000       5.474941       148.9807 
 580   0.0000       5.478286       149.0717 
 581   0.0000       5.497846       149.6040 
 582   0.0000       5.540668       150.7692 
 583   0.0000       5.572639       151.6392 
 584   0.0000       5.585193       151.9808 
 585   0.0000       5.600512       152.3977 
 586   0.0000       5.658108       153.9649 
 587   0.0000       5.725310       155.7936 
 588   0.0000       5.751599       156.5090 
 589   0.0000       5.823626       158.4689 
 590   0.0000       5.835082       158.7807 
 591   0.0000       5.840533       158.9290 
 592   0.0000       5.866730       159.6418 
 593   0.0000       5.873583       159.8283 
 594   0.0000       5.918448       161.0491 
 595   0.0000       6.031517       164.1259 
 596   0.0000       6.049429       164.6133 
 597   0.0000       6.072834       165.2502 
 598   0.0000       6.098113       165.9381 
 599   0.0000       6.150355       167.3597 
 600   0.0000       6.171452       167.9337 
 601   0.0000       6.278431       170.8448 
 602   0.0000       6.631344       180.4480 
 603   0.0000       6.810751       185.3299 
 604   0.0000       6.823611       185.6799 
 605   0.0000       8.276631       225.2186 
 606   0.0000       8.304530       225.9778 
 607   0.0000       8.359990       227.4869 
 608   0.0000      16.711110       454.7324 
 609   0.0000      23.771197       646.8471 
 610   0.0000      23.931208       651.2013 
 611   0.0000      24.010362       653.3552 
 612   0.0000      24.336535       662.2308 
 613   0.0000      24.380738       663.4336 
 614   0.0000      24.393172       663.7720 
 615   0.0000      24.497830       666.6199 
 616   0.0000      39.943877      1086.9282 
 617   0.0000      40.587852      1104.4516 
 618   0.0000      43.372869      1180.2358 
 619   0.0000      59.602078      1621.8550 
 620   0.0000     361.955595      9849.3125 

                    ********************************
                    * MULLIKEN POPULATION ANALYSIS *
                    ********************************

-----------------------
MULLIKEN ATOMIC CHARGES
-----------------------
   0 Ir:    0.652759
   1 C :   -0.546070
   2 C :    0.018818
   3 C :   -0.135388
   4 C :    0.517866
   5 C :   -0.376328
   6 C :    0.177014
   7 H :    0.121587
   8 H :    0.127175
   9 H :    0.086054
  10 H :   -0.002860
  11 H :   -0.007158
  12 H :    0.028840
  13 H :    0.013277
  14 H :    0.054912
  15 C :   -0.361106
  16 H :    0.033337
  17 H :    0.073571
  18 H :    0.150260
  19 H :    0.118674
  20 P :    0.149811
  21 H :    0.028334
  22 H :    0.042949
  23 H :    0.033674
Sum of atomic charges:    1.0000000

--------------------------------
MULLIKEN REDUCED ORBITAL CHARGES
--------------------------------
  0 Irs       :     2.401047  s :     2.401047
      pz      :     2.158197  p :     6.475239
      px      :     2.181762
      py      :     2.135280
      dz2     :     1.559394  d :     7.392485
      dxz     :     1.337901
      dyz     :     1.830288
      dx2y2   :     1.658247
      dxy     :     1.006654
      f0      :     0.008642  f :     0.076044
      f+1     :     0.013605
      f-1     :     0.007952
      f+2     :     0.010078
      f-2     :     0.009069
      f+3     :     0.012207
      f-3     :     0.014490
      g0      :     0.000239  g :     0.002426
      g+1     :     0.000399
      g-1     :     0.000148
      g+2     :     0.000241
      g-2     :     0.000247
      g+3     :     0.000201
      g-3     :     0.000256
      g+4     :     0.000359
      g-4     :     0.000338
  1 C s       :     3.102838  s :     3.102838
      pz      :     1.072937  p :     3.392602
      px      :     1.167271
      py      :     1.152395
      dz2     :    -0.005421  d :     0.047206
      dxz     :    -0.001610
      dyz     :     0.015073
      dx2y2   :     0.025608
      dxy     :     0.013556
      f0      :     0.000683  f :     0.003423
      f+1     :     0.000642
      f-1     :     0.000337
      f+2     :     0.000590
      f-2     :     0.000532
      f+3     :     0.000220
      f-3     :     0.000418
  2 C s       :     3.234891  s :     3.234891
      pz      :     0.904524  p :     2.728129
      px      :     0.949140
      py      :     0.874465
      dz2     :    -0.017046  d :     0.009066
      dxz     :     0.008783
      dyz     :     0.003286
      dx2y2   :     0.002988
      dxy     :     0.011055
      f0      :     0.001698  f :     0.009097
      f+1     :     0.001434
      f-1     :     0.001666
      f+2     :     0.001314
      f-2     :     0.000701
      f+3     :     0.000950
      f-3     :     0.001333
  3 C s       :     3.315005  s :     3.315005
      pz      :     0.922814  p :     2.791660
      px      :     0.964588
      py      :     0.904258
      dz2     :     0.000660  d :     0.019502
      dxz     :     0.002116
      dyz     :     0.001592
      dx2y2   :     0.009040
      dxy     :     0.006093
      f0      :     0.001682  f :     0.009222
      f+1     :     0.001527
      f-1     :     0.001725
      f+2     :     0.001272
      f-2     :     0.000664
      f+3     :     0.001471
      f-3     :     0.000880
  4 C s       :     2.819022  s :     2.819022
      pz      :     0.889818  p :     2.658057
      px      :     0.969588
      py      :     0.798651
      dz2     :    -0.004334  d :    -0.004493
      dxz     :     0.019512
      dyz     :    -0.002677
      dx2y2   :     0.003577
      dxy     :    -0.020570
      f0      :     0.001598  f :     0.009547
      f+1     :     0.001001
      f-1     :     0.001835
      f+2     :     0.001102
      f-2     :     0.001461
      f+3     :     0.001416
      f-3     :     0.001134
  5 C s       :     3.392507  s :     3.392507
      pz      :     1.081866  p :     2.914250
      px      :     0.986781
      py      :     0.845602
      dz2     :     0.009304  d :     0.059802
      dxz     :     0.014481
      dyz     :    -0.002409
      dx2y2   :     0.021158
      dxy     :     0.017267
      f0      :     0.001604  f :     0.009770
      f+1     :     0.000817
      f-1     :     0.002056
      f+2     :     0.001527
      f-2     :     0.001674
      f+3     :     0.001029
      f-3     :     0.001063
  6 C s       :     3.081726  s :     3.081726
      pz      :     0.864191  p :     2.750837
      px      :     1.024816
      py      :     0.861830
      dz2     :     0.001663  d :    -0.018647
      dxz     :     0.014373
      dyz     :    -0.012131
      dx2y2   :    -0.007512
      dxy     :    -0.015039
      f0      :     0.001548  f :     0.009070
      f+1     :     0.000713
      f-1     :     0.001967
      f+2     :     0.001388
      f-2     :     0.001192
      f+3     :     0.001025
      f-3     :     0.001237
  7 H s       :     0.821556  s :     0.821556
      pz      :     0.016926  p :     0.054886
      px      :     0.019147
      py      :     0.018813
      dz2     :     0.000491  d :     0.001971
      dxz     :     0.000269
      dyz     :     0.000363
      dx2y2   :     0.000493
      dxy     :     0.000354
  8 H s       :     0.821264  s :     0.821264
      pz      :     0.011369  p :     0.049638
      px      :     0.029561
      py      :     0.008708
      dz2     :     0.000121  d :     0.001923
      dxz     :     0.000689
      dyz     :     0.000129
      dx2y2   :     0.000474
      dxy     :     0.000510
  9 H s       :     0.854695  s :     0.854695
      pz      :     0.016287  p :     0.057279
      px      :     0.017705
      py      :     0.023287
      dz2     :     0.000504  d :     0.001972
      dxz     :     0.000206
      dyz     :     0.000419
      dx2y2   :     0.000349
      dxy     :     0.000494
 10 H s       :     0.959096  s :     0.959096
      pz      :     0.018824  p :     0.041756
      px      :     0.019587
      py      :     0.003345
      dz2     :     0.000557  d :     0.002008
      dxz     :     0.000591
      dyz     :     0.000816
      dx2y2   :     0.000022
      dxy     :     0.000023
 11 H s       :     0.971297  s :     0.971297
      pz      :     0.006342  p :     0.033881
      px      :     0.018236
      py      :     0.009303
      dz2     :     0.000253  d :     0.001980
      dxz     :     0.000103
      dyz     :     0.000637
      dx2y2   :     0.000463
      dxy     :     0.000523
 12 H s       :     0.936535  s :     0.936535
      pz      :     0.011630  p :     0.032655
      px      :     0.015761
      py      :     0.005264
      dz2     :     0.000693  d :     0.001971
      dxz     :     0.000385
      dyz     :     0.000449
      dx2y2   :     0.000234
      dxy     :     0.000210
 13 H s       :     0.944337  s :     0.944337
      pz      :     0.012695  p :     0.040429
      px      :     0.017828
      py      :     0.009906
      dz2     :     0.000669  d :     0.001956
      dxz     :     0.000338
      dyz     :     0.000455
      dx2y2   :     0.000242
      dxy     :     0.000254
 14 H s       :     0.928929  s :     0.928929
      pz      :     0.007520  p :     0.014152
      px      :     0.003774
      py      :     0.002857
      dz2     :     0.000314  d :     0.002007
      dxz     :     0.000083
      dyz     :     0.000627
      dx2y2   :     0.000413
      dxy     :     0.000569
 15 C s       :     3.021486  s :     3.021486
      pz      :     1.039533  p :     3.260556
      px      :     1.077121
      py      :     1.143903
      dz2     :     0.022074  d :     0.076790
      dxz     :     0.010875
      dyz     :     0.018957
      dx2y2   :     0.006388
      dxy     :     0.018497
      f0      :     0.000089  f :     0.002273
      f+1     :     0.000481
      f-1     :     0.000643
      f+2     :     0.000174
      f-2     :     0.000202
      f+3     :     0.000551
      f-3     :     0.000133
 16 H s       :     0.908955  s :     0.908955
      pz      :     0.046018  p :     0.054794
      px      :     0.011586
      py      :    -0.002810
      dz2     :     0.000585  d :     0.002914
      dxz     :     0.000552
      dyz     :     0.000756
      dx2y2   :     0.000461
      dxy     :     0.000561
 17 H s       :     0.867703  s :     0.867703
      pz      :     0.011472  p :     0.056792
      px      :     0.012650
      py      :     0.032671
      dz2     :     0.000145  d :     0.001934
      dxz     :     0.000057
      dyz     :     0.000633
      dx2y2   :     0.000573
      dxy     :     0.000526
 18 H s       :     0.822662  s :     0.822662
      pz      :     0.018084  p :     0.025266
      px      :    -0.002387
      py      :     0.009569
      dz2     :     0.000488  d :     0.001813
      dxz     :     0.000479
      dyz     :     0.000497
      dx2y2   :     0.000212
      dxy     :     0.000137
 19 H s       :     0.837942  s :     0.837942
      pz      :     0.003455  p :     0.041477
      px      :     0.024053
      py      :     0.013969
      dz2     :     0.000178  d :     0.001907
      dxz     :     0.000626
      dyz     :     0.000028
      dx2y2   :     0.000407
      dxy     :     0.000668
 20 P s       :     5.515270  s :     5.515270
      pz      :     2.919547  p :     8.999648
      px      :     3.070009
      py      :     3.010092
      dz2     :     0.024666  d :     0.310623
      dxz     :     0.122741
      dyz     :     0.051351
      dx2y2   :     0.074706
      dxy     :     0.037158
      f0      :     0.002271  f :     0.024649
      f+1     :     0.004565
      f-1     :     0.001951
      f+2     :     0.004215
      f-2     :     0.004004
      f+3     :     0.004248
      f-3     :     0.003395
 21 H s       :     0.957235  s :     0.957235
      pz      :     0.004875  p :     0.013159
      px      :    -0.003153
      py      :     0.011437
      dz2     :     0.000165  d :     0.001272
      dxz     :     0.000086
      dyz     :     0.000358
      dx2y2   :     0.000326
      dxy     :     0.000336
 22 H s       :     0.940662  s :     0.940662
      pz      :     0.007540  p :     0.015077
      px      :     0.006323
      py      :     0.001213
      dz2     :     0.000340  d :     0.001313
      dxz     :     0.000423
      dyz     :     0.000263
      dx2y2   :     0.000126
      dxy     :     0.000161
 23 H s       :     0.950592  s :     0.950592
      pz      :     0.005226  p :     0.014451
      px      :     0.008642
      py      :     0.000583
      dz2     :     0.000307  d :     0.001283
      dxz     :     0.000351
      dyz     :     0.000207
      dx2y2   :     0.000185
      dxy     :     0.000234


                     *******************************
                     * LOEWDIN POPULATION ANALYSIS *
                     *******************************

----------------------
LOEWDIN ATOMIC CHARGES
----------------------
   0 Ir:    0.942104
   1 C :   -0.031830
   2 C :   -0.045726
   3 C :   -0.058405
   4 C :   -0.100592
   5 C :   -0.052410
   6 C :   -0.046998
   7 H :   -0.084234
   8 H :   -0.097313
   9 H :   -0.089875
  10 H :    0.030163
  11 H :    0.022007
  12 H :    0.023051
  13 H :    0.016807
  14 H :    0.018388
  15 C :    0.255016
  16 H :   -0.143094
  17 H :   -0.019723
  18 H :   -0.060223
  19 H :   -0.031077
  20 P :    0.935233
  21 H :   -0.131710
  22 H :   -0.119496
  23 H :   -0.130064

-------------------------------
LOEWDIN REDUCED ORBITAL CHARGES
-------------------------------
  0 Irs       :     1.989057  s :     1.989057
      pz      :     2.129493  p :     6.392898
      px      :     2.151667
      py      :     2.111738
      dz2     :     1.574026  d :     7.499969
      dxz     :     1.351750
      dyz     :     1.777043
      dx2y2   :     1.640548
      dxy     :     1.156602
      f0      :     0.019927  f :     0.170554
      f+1     :     0.028881
      f-1     :     0.018011
      f+2     :     0.021576
      f-2     :     0.020642
      f+3     :     0.027753
      f-3     :     0.033763
      g0      :     0.000506  g :     0.005418
      g+1     :     0.000883
      g-1     :     0.000300
      g+2     :     0.000472
      g-2     :     0.000539
      g+3     :     0.000449
      g-3     :     0.000599
      g+4     :     0.000808
      g-4     :     0.000862
  1 C s       :     2.702723  s :     2.702723
      pz      :     0.912227  p :     2.815166
      px      :     0.941298
      py      :     0.961641
      dz2     :     0.096012  d :     0.490576
      dxz     :     0.084043
      dyz     :     0.151453
      dx2y2   :     0.084281
      dxy     :     0.074788
      f0      :     0.003857  f :     0.023364
      f+1     :     0.003643
      f-1     :     0.002257
      f+2     :     0.003937
      f-2     :     0.003797
      f+3     :     0.002152
      f-3     :     0.003721
  2 C s       :     2.642132  s :     2.642132
      pz      :     0.918751  p :     2.573059
      px      :     0.725272
      py      :     0.929036
      dz2     :     0.162609  d :     0.780355
      dxz     :     0.123155
      dyz     :     0.243629
      dx2y2   :     0.132718
      dxy     :     0.118245
      f0      :     0.011674  f :     0.050179
      f+1     :     0.007729
      f-1     :     0.008762
      f+2     :     0.007456
      f-2     :     0.003652
      f+3     :     0.004831
      f-3     :     0.006075
  3 C s       :     2.642936  s :     2.642936
      pz      :     0.916366  p :     2.581638
      px      :     0.742516
      py      :     0.922755
      dz2     :     0.163579  d :     0.782939
      dxz     :     0.123619
      dyz     :     0.248146
      dx2y2   :     0.124153
      dxy     :     0.123441
      f0      :     0.011759  f :     0.050893
      f+1     :     0.008577
      f-1     :     0.009080
      f+2     :     0.006721
      f-2     :     0.003507
      f+3     :     0.006489
      f-3     :     0.004760
  4 C s       :     2.639111  s :     2.639111
      pz      :     0.903425  p :     2.585776
      px      :     0.765544
      py      :     0.916807
      dz2     :     0.205317  d :     0.823566
      dxz     :     0.158068
      dyz     :     0.205091
      dx2y2   :     0.140577
      dxy     :     0.114514
      f0      :     0.008745  f :     0.052138
      f+1     :     0.005782
      f-1     :     0.012616
      f+2     :     0.005633
      f-2     :     0.008338
      f+3     :     0.005983
      f-3     :     0.005041
  5 C s       :     2.639437  s :     2.639437
      pz      :     0.943382  p :     2.549687
      px      :     0.700944
      py      :     0.905362
      dz2     :     0.209936  d :     0.809225
      dxz     :     0.098890
      dyz     :     0.177117
      dx2y2   :     0.166626
      dxy     :     0.156658
      f0      :     0.006626  f :     0.054061
      f+1     :     0.003133
      f-1     :     0.014760
      f+2     :     0.009332
      f-2     :     0.010211
      f+3     :     0.005029
      f-3     :     0.004969
  6 C s       :     2.638952  s :     2.638952
      pz      :     0.905555  p :     2.594361
      px      :     0.751944
      py      :     0.936862
      dz2     :     0.209559  d :     0.763892
      dxz     :     0.143121
      dyz     :     0.195495
      dx2y2   :     0.123254
      dxy     :     0.092463
      f0      :     0.008840  f :     0.049793
      f+1     :     0.003987
      f-1     :     0.012939
      f+2     :     0.008207
      f-2     :     0.006907
      f+3     :     0.004049
      f-3     :     0.004864
  7 H s       :     0.729240  s :     0.729240
      pz      :     0.109233  p :     0.324997
      px      :     0.103597
      py      :     0.112167
      dz2     :     0.006013  d :     0.029997
      dxz     :     0.004703
      dyz     :     0.006336
      dx2y2   :     0.007377
      dxy     :     0.005568
  8 H s       :     0.726663  s :     0.726663
      pz      :     0.099553  p :     0.340572
      px      :     0.142143
      py      :     0.098876
      dz2     :     0.002613  d :     0.030078
      dxz     :     0.008566
      dyz     :     0.001363
      dx2y2   :     0.008598
      dxy     :     0.008938
  9 H s       :     0.729450  s :     0.729450
      pz      :     0.115274  p :     0.330441
      px      :     0.087506
      py      :     0.127662
      dz2     :     0.006105  d :     0.029983
      dxz     :     0.002707
      dyz     :     0.008350
      dx2y2   :     0.005602
      dxy     :     0.007219
 10 H s       :     0.690897  s :     0.690897
      pz      :     0.126464  p :     0.250663
      px      :     0.066427
      py      :     0.057772
      dz2     :     0.012139  d :     0.028277
      dxz     :     0.007478
      dyz     :     0.008410
      dx2y2   :     0.000140
      dxy     :     0.000110
 11 H s       :     0.698611  s :     0.698611
      pz      :     0.061107  p :     0.250788
      px      :     0.074266
      py      :     0.115415
      dz2     :     0.003591  d :     0.028594
      dxz     :     0.001225
      dyz     :     0.007892
      dx2y2   :     0.008231
      dxy     :     0.007654
 12 H s       :     0.698660  s :     0.698660
      pz      :     0.103131  p :     0.250116
      px      :     0.067782
      py      :     0.079202
      dz2     :     0.008689  d :     0.028173
      dxz     :     0.005207
      dyz     :     0.008835
      dx2y2   :     0.002863
      dxy     :     0.002579
 13 H s       :     0.699218  s :     0.699218
      pz      :     0.100212  p :     0.255683
      px      :     0.075572
      py      :     0.079899
      dz2     :     0.008262  d :     0.028293
      dxz     :     0.005318
      dyz     :     0.008516
      dx2y2   :     0.002979
      dxy     :     0.003218
 14 H s       :     0.699496  s :     0.699496
      pz      :     0.064388  p :     0.253408
      px      :     0.072270
      py      :     0.116749
      dz2     :     0.003932  d :     0.028708
      dxz     :     0.001096
      dyz     :     0.008402
      dx2y2   :     0.007590
      dxy     :     0.007689
 15 C s       :     2.645234  s :     2.645234
      pz      :     0.890766  p :     2.724632
      px      :     0.917879
      py      :     0.915987
      dz2     :     0.080012  d :     0.354893
      dxz     :     0.050364
      dyz     :     0.062687
      dx2y2   :     0.107187
      dxy     :     0.054644
      f0      :     0.001338  f :     0.020225
      f+1     :     0.004590
      f-1     :     0.004690
      f+2     :     0.000972
      f-2     :     0.002854
      f+3     :     0.004398
      f-3     :     0.001381
 16 H s       :     0.649489  s :     0.649489
      pz      :     0.169540  p :     0.462997
      px      :     0.134509
      py      :     0.158948
      dz2     :     0.007319  d :     0.030608
      dxz     :     0.006583
      dyz     :     0.007917
      dx2y2   :     0.004638
      dxy     :     0.004150
 17 H s       :     0.703030  s :     0.703030
      pz      :     0.075582  p :     0.287662
      px      :     0.082417
      py      :     0.129664
      dz2     :     0.002661  d :     0.029030
      dxz     :     0.000891
      dyz     :     0.008728
      dx2y2   :     0.008525
      dxy     :     0.008225
 18 H s       :     0.704396  s :     0.704396
      pz      :     0.121258  p :     0.326322
      px      :     0.090642
      py      :     0.114422
      dz2     :     0.008835  d :     0.029505
      dxz     :     0.007306
      dyz     :     0.008287
      dx2y2   :     0.003021
      dxy     :     0.002054
 19 H s       :     0.708281  s :     0.708281
      pz      :     0.076909  p :     0.293704
      px      :     0.134139
      py      :     0.082656
      dz2     :     0.003028  d :     0.029092
      dxz     :     0.008979
      dyz     :     0.000374
      dx2y2   :     0.007583
      dxy     :     0.009128
 20 P s       :     4.732875  s :     4.732875
      pz      :     2.808721  p :     8.567826
      px      :     2.903676
      py      :     2.855430
      dz2     :     0.062361  d :     0.699794
      dxz     :     0.242536
      dyz     :     0.121915
      dx2y2   :     0.177648
      dxy     :     0.095335
      f0      :     0.006200  f :     0.064272
      f+1     :     0.011356
      f-1     :     0.005350
      f+2     :     0.010519
      f-2     :     0.009976
      f+3     :     0.011192
      f-3     :     0.009680
 21 H s       :     0.850070  s :     0.850070
      pz      :     0.068244  p :     0.269972
      px      :     0.064855
      py      :     0.136873
      dz2     :     0.001373  d :     0.011668
      dxz     :     0.000582
      dyz     :     0.003426
      dx2y2   :     0.003776
      dxy     :     0.002511
 22 H s       :     0.834139  s :     0.834139
      pz      :     0.113856  p :     0.273521
      px      :     0.096809
      py      :     0.062856
      dz2     :     0.002525  d :     0.011836
      dxz     :     0.004525
      dyz     :     0.002072
      dx2y2   :     0.001276
      dxy     :     0.001438
 23 H s       :     0.846548  s :     0.846548
      pz      :     0.096696  p :     0.271807
      px      :     0.102859
      py      :     0.072252
      dz2     :     0.002166  d :     0.011709
      dxz     :     0.004153
      dyz     :     0.001687
      dx2y2   :     0.001931
      dxy     :     0.001773


                      *****************************
                      * MAYER POPULATION ANALYSIS *
                      *****************************

  NA   - Mulliken gross atomic population
  ZA   - Total nuclear charge
  QA   - Mulliken gross atomic charge
  VA   - Mayer's total valence
  BVA  - Mayer's bonded valence
  FA   - Mayer's free valence

  ATOM       NA         ZA         QA         VA         BVA        FA
  0 Ir    16.3472    17.0000     0.6528     4.0913     4.0913     0.0000
  1 C      6.5461     6.0000    -0.5461     3.8223     3.8223     0.0000
  2 C      5.9812     6.0000     0.0188     3.5665     3.5665    -0.0000
  3 C      6.1354     6.0000    -0.1354     3.5971     3.5971     0.0000
  4 C      5.4821     6.0000     0.5179     2.8378     2.8378    -0.0000
  5 C      6.3763     6.0000    -0.3763     3.8959     3.8959     0.0000
  6 C      5.8230     6.0000     0.1770     3.2583     3.2583     0.0000
  7 H      0.8784     1.0000     0.1216     1.0878     1.0878    -0.0000
  8 H      0.8728     1.0000     0.1272     1.1142     1.1142     0.0000
  9 H      0.9139     1.0000     0.0861     1.1259     1.1259    -0.0000
 10 H      1.0029     1.0000    -0.0029     1.0101     1.0101     0.0000
 11 H      1.0072     1.0000    -0.0072     1.0018     1.0018     0.0000
 12 H      0.9712     1.0000     0.0288     0.9893     0.9893    -0.0000
 13 H      0.9867     1.0000     0.0133     1.0131     1.0131     0.0000
 14 H      0.9451     1.0000     0.0549     0.9416     0.9416    -0.0000
 15 C      6.3611     6.0000    -0.3611     4.0759     4.0759     0.0000
 16 H      0.9667     1.0000     0.0333     0.9775     0.9775    -0.0000
 17 H      0.9264     1.0000     0.0736     1.1077     1.1077    -0.0000
 18 H      0.8497     1.0000     0.1503     0.9835     0.9835     0.0000
 19 H      0.8813     1.0000     0.1187     1.0244     1.0244     0.0000
 20 P     14.8502    15.0000     0.1498     3.8882     3.8882     0.0000
 21 H      0.9717     1.0000     0.0283     0.9565     0.9565     0.0000
 22 H      0.9571     1.0000     0.0429     0.9623     0.9623    -0.0000
 23 H      0.9663     1.0000     0.0337     0.9629     0.9629    -0.0000

  Mayer bond orders larger than 0.100000
B(  0-Ir,  1-C ) :   0.6133 B(  0-Ir,  2-C ) :   0.4457 B(  0-Ir,  3-C ) :   0.4229 
B(  0-Ir,  4-C ) :   0.4779 B(  0-Ir,  5-C ) :   0.5773 B(  0-Ir,  6-C ) :   0.3721 
B(  0-Ir, 15-C ) :   0.1001 B(  0-Ir, 16-H ) :   0.1088 B(  0-Ir, 20-P ) :   0.8959 
B(  1-C ,  5-C ) :   0.1227 B(  1-C ,  7-H ) :   1.0083 B(  1-C ,  8-H ) :   0.9864 
B(  1-C ,  9-H ) :   1.0428 B(  2-C ,  3-C ) :   1.4402 B(  2-C ,  4-C ) :  -0.2970 
B(  2-C ,  6-C ) :   1.0693 B(  2-C , 12-H ) :   0.9677 B(  3-C ,  4-C ) :   1.0281 
B(  3-C ,  6-C ) :  -0.2700 B(  3-C , 13-H ) :   1.0079 B(  4-C ,  5-C ) :   0.9972 
B(  4-C ,  6-C ) :  -0.2750 B(  4-C , 14-H ) :   0.9296 B(  5-C ,  6-C ) :   1.3525 
B(  5-C , 10-H ) :   0.9543 B(  6-C , 11-H ) :   0.9743 B( 15-C , 16-H ) :   0.8888 
B( 15-C , 17-H ) :   1.0421 B( 15-C , 18-H ) :   0.9484 B( 15-C , 19-H ) :   0.9961 
B( 20-P , 21-H ) :   0.9703 B( 20-P , 22-H ) :   0.9665 B( 20-P , 23-H ) :   0.9672 


-------
TIMINGS
-------

Total SCF time: 0 days 0 hours 0 min 48 sec 

Total time                  ....      48.634 sec
Sum of individual times     ....      47.970 sec  ( 98.6%)

Fock matrix formation       ....      41.992 sec  ( 86.3%)
  XC integration            ....       6.221 sec  ( 14.8% of F)
    Basis function eval.    ....       1.077 sec  ( 17.3% of XC)
    Density eval.           ....       1.907 sec  ( 30.7% of XC)
    XC-Functional eval.     ....       0.079 sec  (  1.3% of XC)
    XC-Potential eval.      ....       2.263 sec  ( 36.4% of XC)
Diagonalization             ....       2.035 sec  (  4.2%)
Density matrix formation    ....       0.133 sec  (  0.3%)
Population analysis         ....       0.077 sec  (  0.2%)
Initial guess               ....       1.730 sec  (  3.6%)
Orbital Transformation      ....       0.000 sec  (  0.0%)
Orbital Orthonormalization  ....       0.000 sec  (  0.0%)
DIIS solution               ....       1.320 sec  (  2.7%)
Grid generation             ....       0.682 sec  (  1.4%)


           ************************************************************
           *        Program running with 24 parallel MPI-processes    *
           *              working on a common directory               *
           ************************************************************

------------------------------------------------------------------------------
                                ORCA  MP2 
------------------------------------------------------------------------------

Freezing NCore=24 chemical core electrons

-------------
RI-MP2 ENERGY
-------------
Dimension of the basis                    ...  621
Memory devoted to MP2                     ... 5000 MB   
Data format for buffers                   ... DOUBLE
Compression type for matrix containers    ... UNCOMPRESSED
Scaling for aa/bb pairs                   ...   4.000e-01
Scaling for ab pairs                      ...   4.700e-01
Overall scaling of the MP2 energy         ...   1.000e+00
Calculating two index integrals           ... done (    0.019 sec)
Cholesky decomposition of V**-1           ... done (    0.232 sec)

-----------------
RI-TRANSFORMATION (AUX index driven)
-----------------

Dimension of the orbital-basis         ... 621
Dimension of the aux-basis             ... 1561
Transformation of internal/external MOs...   12-  43 to   44- 620
Number Format for Storage              ... Double (8 Byte)
Integral mode                          ... Direct

First Phase: integral generation and transformation of MO indices
  Aux angular momentum 0               ... done (    0.076 sec)
  Aux angular momentum 1               ... done (    0.149 sec)
  Aux angular momentum 2               ... done (    0.182 sec)
  Aux angular momentum 3               ... done (    0.182 sec)
  Aux angular momentum 4               ... done (    0.074 sec)
  Aux angular momentum 5               ... done (    0.096 sec)
  Aux angular momentum 6               ... done (    0.122 sec)
Closing buffer VIA ( 0.21 GB; CompressionRatio= 1.00)
  Phase 1 completed in     0.975 sec
Second Phase: sorting and transformation of aux index

IA-Transformation
Memory available                       ... 4951 MB 
Max. # MO pairs treated in a batch     ... 2    
# of internal orbitals                 ... 32
# batches for internal orbitals        ... 1
Closing buffer IAV ( 0.01 GB; CompressionRatio= 1.00)
(ia|v) transformation done in     0.171 sec

  Phase 2 completed in     0.388 sec
RI-Integral transformation completed in     1.375 sec
Opening buffers                              ... done

Starting loop over batches of integrals:

Operator 0  - window                       ... ( 12- 43)x( 44-620)
Operator 0  - Memory available             ...  5000 MB
Operator 0  - Memory needed per MO         ...   6.9 MB
Operator 0  - Number of orbitals per batch ... 2
Operator 0  - Number of batches            ... 1

OPERATOR  0   PASS   0:  MOs    12 ...   13 +   14 ...   15 +   16 ...   17 +   18 ...   19
                            +   20 ...   21 +   22 ...   23 +   24 ...   25 +   26 ...   27
                            +   28 ...   29 +   30 ...   31 +   32 ...   33 +   34 ...   35
                            +   36 ...   37 +   38 ...   39 +   40 ...   41 +   42 ...   43
  Reading integrals       ... ok
Time spent in pair loops =     0.097 sec
Deleting buffer (Ka|jb)[aa] ...done

-----------------------------------------------
 RI-MP2 CORRELATION ENERGY:     -1.038238121 Eh
-----------------------------------------------


-------
TIMINGS
-------

Total time                :    3.116 sec
Integral trafo            :    1.386 sec ( 44.5%)
I/O of integrals          :    0.014 sec (  0.4%)
K(i,j) Operators          :    0.056 sec (  1.8%)
T(i,j) pair energies      :    0.012 sec (  0.4%)
V-calculation             :    0.019 sec (  0.6%)
V**(-1/2)                 :    0.232 sec (  7.5%)
Gamma(ia|P)               :    0.000 sec (  0.0%)
Gamma-Trafo               :    0.000 sec (  0.0%)
D(virtual)                :    0.000 sec (  0.0%)
D(internal)               :    0.000 sec (  0.0%)
W(virtual)                :    0.000 sec (  0.0%)
W(internal)               :    0.000 sec (  0.0%)
L(virtual)                :    0.000 sec (  0.0%)
L(internal)               :    0.000 sec (  0.0%)
G(D)                      :    0.000 sec (  0.0%)
G(Z)                      :    0.000 sec (  0.0%)
Z-Vector Solution         :    0.000 sec (  0.0%)
Z-Vector Solution         :    0.000 sec (  0.0%)
3-Index Derivative 
+ Separable RIJ part      :    0.000 sec (  0.0%)
2-Index Derivative 
+ Separable RIJ part      :    0.000 sec (  0.0%)
Separable Gradient (X)    :    0.000 sec (  0.0%)


---------------------------------------
MP2 TOTAL ENERGY:     -720.625494383 Eh
---------------------------------------


-------------------------------------------------------------------------------
                          DFT DISPERSION CORRECTION                            
                                                                               
                              DFTD3 V3.1  Rev 1                                
                          USING Becke-Johnson damping                          
-------------------------------------------------------------------------------
The DSD-BLYP/2013 functional is recognized
Active option DFTDOPT                   ...         4   

molecular C6(AA) [au] = 7344.858850 


            DFT-D V3
 parameters
 s6 scaling factor         :     0.5700 
 a1 scaling factor         :     0.0000 
 s8 scaling factor         :     0.0000 
 a2 scaling factor         :     5.4000 
 ad hoc parameters k1-k3   :    16.0000     1.3333    -4.0000 

 Edisp/kcal,au: -21.956986739573  -0.034990681902 
 E6   /kcal   : -21.956986740 
 E8   /kcal   :  -0.000000000 
 % E8         :   0.000000000 

-------------------------   ----------------
Dispersion correction           -0.034990682
-------------------------   ----------------


-------------------------   --------------------
FINAL SINGLE POINT ENERGY      -720.660485065335
-------------------------   --------------------


                            ***************************************
                            *     ORCA property calculations      *
                            ***************************************


  WARNING: The energy has been calculated at the MP2 level but the densities
           used in the property calculations are still SCF densities
           MP2 response densities have not been calculated 
           use %mp2 Density relaxed end
           or  %mp2 Density unrelaxed end

                                    ---------------------
                                    Active property flags
                                    ---------------------
   (+) Dipole Moment


------------------------------------------------------------------------------
                       ORCA ELECTRIC PROPERTIES CALCULATION
------------------------------------------------------------------------------

Dipole Moment Calculation                       ... on
Quadrupole Moment Calculation                   ... off
Polarizability Calculation                      ... off
GBWName                                         ... TMB31_C1.gbw
Electron density file                           ... TMB31_C1.scfp
The origin for moment calculation is the CENTER OF MASS  = ( 0.021896, -0.007590  0.007804)

-------------
DIPOLE MOMENT
-------------
                                X             Y             Z
Electronic contribution:     -2.91654       9.99897       7.21240
Nuclear contribution   :      2.66689     -10.24599      -8.00272
                        -----------------------------------------
Total Dipole Moment    :     -0.24966      -0.24702      -0.79032
                        -----------------------------------------
Magnitude (a.u.)       :      0.86484
Magnitude (Debye)      :      2.19825



--------------------
Rotational spectrum 
--------------------
 
Rotational constants in cm-1:     0.050543     0.032436     0.029954 
Rotational constants in MHz :  1515.232111   972.406510   898.012536 

 Dipole components along the rotational axes: 
x,y,z [a.u.] :    -0.255849    -0.292016    -0.772798 
x,y,z [Debye]:    -0.650317    -0.742245    -1.964298 

 

Timings for individual modules:

Sum of individual times         ...       55.705 sec (=   0.928 min)
GTO integral calculation        ...        3.054 sec (=   0.051 min)   5.5 %
SCF iterations                  ...       48.986 sec (=   0.816 min)  87.9 %
MP2 module                      ...        3.665 sec (=   0.061 min)   6.6 %
                             ****ORCA TERMINATED NORMALLY****
TOTAL RUN TIME: 0 days 0 hours 0 minutes 56 seconds 334 msec
