
                                 *****************
                                 * O   R   C   A *
                                 *****************

           --- An Ab Initio, DFT and Semiempirical electronic structure package ---

                  #######################################################
                  #                        -***-                        #
                  #          Department of theory and spectroscopy      #
                  #               Directorship: Frank Neese             #
                  #        Max Planck Institute fuer Kohlenforschung    #
                  #                Kaiser Wilhelm Platz 1               #
                  #                 D-45470 Muelheim/Ruhr               #
                  #                      Germany                        #
                  #                                                     #
                  #                  All rights reserved                #
                  #                        -***-                        #
                  #######################################################


                         Program Version 4.2.0 -  RELEASE  -


 With contributions from (in alphabetic order):
   Daniel Aravena         : Magnetic Suceptibility
   Michael Atanasov       : Ab Initio Ligand Field Theory (pilot matlab implementation)
   Alexander A. Auer      : GIAO ZORA, VPT2
   Ute Becker             : Parallelization
   Giovanni Bistoni       : ED, misc. LED, open-shell LED, HFLED
   Martin Brehm           : Molecular dynamics
   Dmytro Bykov           : SCF Hessian
   Vijay G. Chilkuri      : MRCI spin determinant printing, contributions to CSF-ICE
   Dipayan Datta          : RHF DLPNO-CCSD density
   Achintya Kumar Dutta   : EOM-CC, STEOM-CC
   Dmitry Ganyushin       : Spin-Orbit,Spin-Spin,Magnetic field MRCI
   Miquel Garcia          : C-PCM Hessian, Gaussian charge scheme
   Yang Guo               : DLPNO-NEVPT2, CIM, IAO-localization
   Andreas Hansen         : Spin unrestricted coupled pair/coupled cluster methods
   Benjamin Helmich-Paris : CASSCF linear response (MC-RPA)
   Lee Huntington         : MR-EOM, pCC
   Robert Izsak           : Overlap fitted RIJCOSX, COSX-SCS-MP3, EOM
   Christian Kollmar      : KDIIS, OOCD, Brueckner-CCSD(T), CCSD density
   Simone Kossmann        : Meta GGA functionals, TD-DFT gradient, OOMP2, MP2 Hessian
   Martin Krupicka        : AUTO-CI
   Lucas Lang             : DCDCAS
   Dagmar Lenk            : GEPOL surface, SMD
   Dimitrios Liakos       : Extrapolation schemes; Compound Job, initial MDCI parallelization
   Dimitrios Manganas     : Further ROCIS development; embedding schemes
   Dimitrios Pantazis     : SARC Basis sets
   Taras Petrenko         : DFT Hessian,TD-DFT gradient, ASA, ECA, R-Raman, ABS, FL, XAS/XES, NRVS
   Peter Pinski           : DLPNO-MP2, DLPNO-MP2 Gradient
   Christoph Reimann      : Effective Core Potentials
   Marius Retegan         : Local ZFS, SOC
   Christoph Riplinger    : Optimizer, TS searches, QM/MM, DLPNO-CCSD(T), (RO)-DLPNO pert. Triples
   Tobias Risthaus        : Range-separated hybrids, TD-DFT gradient, RPA, STAB
   Michael Roemelt        : Original ROCIS implementation
   Masaaki Saitow         : Open-shell DLPNO-CCSD energy and density
   Barbara Sandhoefer     : DKH picture change effects
   Avijit Sen             : IP-ROCIS
   Kantharuban Sivalingam : CASSCF convergence, NEVPT2, FIC-MRCI
   Bernardo de Souza      : ESD, SOC TD-DFT
   Georgi Stoychev        : AutoAux, RI-MP2 NMR
   Willem Van den Heuvel  : Paramagnetic NMR
   Boris Wezisla          : Elementary symmetry handling
   Frank Wennmohs         : Technical directorship


 We gratefully acknowledge several colleagues who have allowed us to
 interface, adapt or use parts of their codes:
   Stefan Grimme, W. Hujo, H. Kruse,             : VdW corrections, initial TS optimization,
                  C. Bannwarth                     DFT functionals, gCP, sTDA/sTD-DF
   Ed Valeev, F. Pavosevic, A. Kumar             : LibInt (2-el integral package), F12 methods
   Garnet Chan, S. Sharma, J. Yang, R. Olivares  : DMRG
   Ulf Ekstrom                                   : XCFun DFT Library
   Mihaly Kallay                                 : mrcc  (arbitrary order and MRCC methods)
   Andreas Klamt, Michael Diedenhofen            : otool_cosmo (COSMO solvation model)
   Jiri Pittner, Ondrej Demel                    : Mk-CCSD
   Frank Weinhold                                : gennbo (NPA and NBO analysis)
   Christopher J. Cramer and Donald G. Truhlar   : smd solvation model
   Lars Goerigk                                  : TD-DFT with DH, B97 family of functionals
   V. Asgeirsson, H. Jonsson                     : NEB implementation
   FAccTs GmbH                                   : IRC, NEB, NEB-TS, Multilevel, MM, QM/MM, CI optimization
   S Lehtola, MJT Oliveira, MAL Marques          : LibXC Library


 Your calculation uses the libint2 library for the computation of 2-el integrals
 For citations please refer to: http://libint.valeyev.net

 Your ORCA version has been built with support for libXC version: 4.2.3
 For citations please refer to: https://tddft.org/programs/libxc/

 This ORCA versions uses:
   CBLAS   interface :  Fast vector & matrix operations
   LAPACKE interface :  Fast linear algebra routines
   SCALAPACK package :  Parallel linear algebra routines


Your calculation utilizes the atom-pairwise dispersion correction
with the Becke-Johnson damping scheme (D3BJ)
Cite in your paper:
S.Grimme, S.Ehrlich, L.Goerigk, J Comput Chem, (2011), 32, 1456–1465 
S.Grimme, J.Antony, S.Ehrlich and H.Krieg, J.Chem.Phys., 132, (2010), 154104 
   

----- Orbital basis set information -----
Your calculation utilizes the basis: def2-TZVPPD
   F. Weigend and R. Ahlrichs, Phys. Chem. Chem. Phys. 7, 3297 (2005).
   D. Rappoport and F. Furche, J. Chem. Phys. 133 134105 (2010).

----- AuxC basis set information -----
Your calculation utilizes the auxiliary basis: def2-TZVPPD/C
   A. Hellweg, C. Hattig, S. Hofener and W. Klopper, Theor. Chem. Acc. 117, 587 (2007).

----- AuxJK basis set information -----
Your calculation utilizes the auxiliary basis: def2/JK
   H-Ba, Hf-Rn: F. Weigend, J. Comput. Chem. 29, 167 (2008).

================================================================================
                                        WARNINGS
                       Please study these warnings very carefully!
================================================================================


WARNING: your system is open-shell and RHF/RKS was chosen
  ===> : WILL SWITCH to UHF/UKS


WARNING: No MP2 level density has been requested!
         To caclulate MP2 level properties use
         %mp2 Density relaxed end
         or
         %mp2 Density unrelaxed end
         Otherwise for double-hybrid DFT only the energy is correct!

WARNING: There are different parametrizations of Gershom Martin's DSD-DFs
         for use with and without D3(BJ)!
         You are using the D3(BJ) parametrized version,
         consistent with the 2013 article (S. Kozuch and J. M. L. Martin, JCC 2013, 34, 2327)

WARNING: The frozen-core approximation is turned on by default for 
         the MP2 part of double-hybrid DFT.

INFO   : the flag for use of LIBINT has been found!

================================================================================
                                       INPUT FILE
================================================================================
NAME = TMD06_Br.in
|  1> #
|  2> # TMD06_Br ri-DSD-BLYP/2013-D3BJ/Def2-TZVPPD
|  3> #
|  4> ! rijk ri-dsd-blyp/2013 d3bj def2-tzvppd def2/jk def2-tzvppd/c grid4 nofinalgrid
|  5> 
|  6> *xyz 0 2
|  7> Br       0.000000    0.000000    0.000000 
|  8> *
|  9> 
| 10> %maxcore 5000
| 11> 
| 12> %pal
| 13> nprocs = 24
| 14> end
| 15> 
| 16> 
| 17>                          ****END OF INPUT****
================================================================================

                       ****************************
                       * Single Point Calculation *
                       ****************************

---------------------------------
CARTESIAN COORDINATES (ANGSTROEM)
---------------------------------
  Br     0.000000    0.000000    0.000000

----------------------------
CARTESIAN COORDINATES (A.U.)
----------------------------
  NO LB      ZA    FRAG     MASS         X           Y           Z
   0 Br   35.0000    0    79.900    0.000000    0.000000    0.000000

--------------------------------
INTERNAL COORDINATES (ANGSTROEM)
--------------------------------
 Br     0   0   0     0.000000000000     0.00000000     0.00000000

---------------------------
INTERNAL COORDINATES (A.U.)
---------------------------
 Br     0   0   0     0.000000000000     0.00000000     0.00000000

---------------------
BASIS SET INFORMATION
---------------------
There are 1 groups of distinct atoms

 Group   1 Type Br  : 18s14p9d1f contracted to 7s6p5d1f pattern {8421111/641111/51111/1}

Atom   0Br   basis set group =>   1
---------------------------------
AUXILIARY/C BASIS SET INFORMATION
---------------------------------
There are 1 groups of distinct atoms

 Group   1 Type Br  : 11s10p9d7f4g1h contracted to 11s10p9d6f4g1h pattern {11111111111/1111111111/111111111/211111/1111/1}

Atom   0Br   basis set group =>   1
----------------------------------
AUXILIARY/JK BASIS SET INFORMATION
----------------------------------
There are 1 groups of distinct atoms

 Group   1 Type Br  : 20s14p13d10f7g3h contracted to 17s13p12d9f6g3h pattern {41111111111111111/2111111111111/211111111111/211111111/211111/111}

Atom   0Br   basis set group =>   1


           ************************************************************
           *        Program running with 24 parallel MPI-processes    *
           *              working on a common directory               *
           ************************************************************
------------------------------------------------------------------------------
                           ORCA GTO INTEGRAL CALCULATION
                           -- RI-GTO INTEGRALS CHOSEN --
------------------------------------------------------------------------------

                         BASIS SET STATISTICS AND STARTUP INFO

Gaussian basis set:
 # of primitive gaussian shells          ...   42
 # of primitive gaussian functions       ...  112
 # of contracted shells                  ...   19
 # of contracted basis functions         ...   57
 Highest angular momentum                ...    3
 Maximum contraction depth               ...    8
Auxiliary gaussian basis set:
 # of primitive gaussian shells          ...   67
 # of primitive gaussian functions       ...  293
 # of contracted shells                  ...   60
 # of contracted aux-basis functions     ...  266
 Highest angular momentum                ...    5
 Maximum contraction depth               ...    4
Ratio of auxiliary to basis functions    ...  4.67
Integral package used                  ... LIBINT
 One Electron integrals                  ... done
 Ordering auxiliary basis shells         ... done
 Integral threshhold             Thresh  ...  1.000e-10
 Primitive cut-off               TCut    ...  1.000e-11
 Pre-screening matrix                    ... done
 Shell pair data                         ... 
 Ordering of the shell pairs             ... done (   0.000 sec) 190 of 190 pairs
 Determination of significant pairs      ... done (   0.000 sec)
 Creation of shell pair data             ... done (   0.000 sec)
 Storage of shell pair data              ... done (   0.034 sec)
 Shell pair data done in (   0.034 sec)
 Computing two index integrals           ... done
 Cholesky decomposition of the V-matrix  ... done


Timings:
 Total evaluation time                   ...   0.179 sec (  0.003 min)
 One electron matrix time                ...   0.016 sec (  0.000 min) =  9.1%
 Schwartz matrix evaluation time         ...   0.094 sec (  0.002 min) = 52.6%
 Two index repulsion integral time       ...   0.008 sec (  0.000 min) =  4.4%
 Cholesky decomposition of V             ...   0.001 sec (  0.000 min) =  0.8%
 Three index repulsion integral time     ...   0.000 sec (  0.000 min) =  0.0%



           ************************************************************
           *        Program running with 24 parallel MPI-processes    *
           *              working on a common directory               *
           ************************************************************
-------------------------------------------------------------------------------
                                 ORCA SCF
-------------------------------------------------------------------------------

------------
SCF SETTINGS
------------
Hamiltonian:
 Density Functional     Method          .... DFT(GTOs)
 Exchange Functional    Exchange        .... B88
   X-Alpha parameter    XAlpha          ....  0.666667
   Becke's b parameter  XBeta           ....  0.004200
 Correlation Functional Correlation     .... LYP
 LDA part of GGA corr.  LDAOpt          .... VWN-5
 Gradients option       PostSCFGGA      .... off
 Hybrid DFT is turned on
   Fraction HF Exchange ScalHFX         ....  0.710000
   Scaling of DF-GGA-X  ScalDFX         ....  0.290000
   Scaling of DF-GGA-C  ScalDFC         ....  0.540000
   Scaling of DF-LDA-C  ScalLDAC        ....  0.540000
   Perturbative correction              ....  1.000000
   Density functional embedding theory  .... OFF
 RI-approximation to the Coulomb term is turned on
   Number of auxiliary basis functions  .... 266
   RI-JK (J+K treated both via RI)      .... on


General Settings:
 Integral files         IntName         .... TMD06_Br
 Hartree-Fock type      HFTyp           .... UHF
 Total Charge           Charge          ....    0
 Multiplicity           Mult            ....    2
 Number of Electrons    NEL             ....   35
 Basis Dimension        Dim             ....   57
 Nuclear Repulsion      ENuc            ....      0.0000000000 Eh

Convergence Acceleration:
 DIIS                   CNVDIIS         .... on
   Start iteration      DIISMaxIt       ....    12
   Startup error        DIISStart       ....  0.200000
   # of expansion vecs  DIISMaxEq       ....     5
   Bias factor          DIISBfac        ....   1.050
   Max. coefficient     DIISMaxC        ....  10.000
 Newton-Raphson         CNVNR           .... off
 SOSCF                  CNVSOSCF        .... off
 Level Shifting         CNVShift        .... on
   Level shift para.    LevelShift      ....    0.2500
   Turn off err/grad.   ShiftErr        ....    0.0010
 Zerner damping         CNVZerner       .... off
 Static damping         CNVDamp         .... on
   Fraction old density DampFac         ....    0.7000
   Max. Damping (<1)    DampMax         ....    0.9800
   Min. Damping (>=0)   DampMin         ....    0.0000
   Turn off err/grad.   DampErr         ....    0.1000
 Fernandez-Rico         CNVRico         .... off

SCF Procedure:
 Maximum # iterations   MaxIter         ....   125
 SCF integral mode      SCFMode         .... Direct
   Integral package                     .... LIBINT
 Reset frequency        DirectResetFreq ....    20
 Integral Threshold     Thresh          ....  1.000e-10 Eh
 Primitive CutOff       TCut            ....  1.000e-11 Eh

Convergence Tolerance:
 Convergence Check Mode ConvCheckMode   .... Total+1el-Energy
 Convergence forced     ConvForced      .... 0
 Energy Change          TolE            ....  1.000e-06 Eh
 1-El. energy change                    ....  1.000e-03 Eh
 DIIS Error             TolErr          ....  1.000e-06


Diagonalization of the overlap matrix:
Smallest eigenvalue                        ... 1.948e-02
Time for diagonalization                   ...    0.002 sec
Threshold for overlap eigenvalues          ... 1.000e-08
Number of eigenvalues below threshold      ... 0
Time for construction of square roots      ...    0.001 sec
Total time needed                          ...    0.004 sec

-------------------
DFT GRID GENERATION
-------------------

General Integration Accuracy     IntAcc      ...  4.670
Radial Grid Type                 RadialGrid  ... Gauss-Chebyshev
Angular Grid (max. acc.)         AngularGrid ... Lebedev-302
Angular grid pruning method      GridPruning ... 3 (G Style)
Weight generation scheme         WeightScheme... Becke
Basis function cutoff            BFCut       ...    1.0000e-10
Integration weight cutoff        WCut        ...    1.0000e-14
Grids for H and He will be reduced by one unit

# of grid points (after initial pruning)     ...   9616 (   0.0 sec)
# of grid points (after weights+screening)   ...   9616 (   0.0 sec)
Grid point division into batches done        ...    0.1 sec
Reduced shell lists constructed in    0.1 sec

Total number of grid points                  ...     9616
Total number of batches                      ...      151
Average number of points per batch           ...       63
Average number of grid points per atom       ...     9616
Average number of shells per batch           ...     5.25 (27.63%)
Average number of basis functions per batch  ...    15.75 (27.63%)
Average number of large shells per batch     ...     3.50 (66.67%)
Average number of large basis fcns per batch ...    10.50 (66.67%)
Average number of aux-shells per batch       ...     5.25 ( 8.75%)
Average number of aux functions per batch    ...    15.75 ( 5.92%)
Maximum spatial batch extension              ...  20.96, 16.71, 16.71 au
Average spatial batch extension              ...   0.72,  0.66,  0.65 au

Time for grid setup =    0.122 sec

------------------------------
INITIAL GUESS: MODEL POTENTIAL
------------------------------
Loading Hartree-Fock densities                     ... done
Calculating cut-offs                               ... done
Setting up the integral package                    ... done
Initializing the effective Hamiltonian             ... done
Starting the Coulomb interaction                   ... done (   0.0 sec)
Reading the grid                                   ... done
Mapping shells                                     ... done
Starting the XC term evaluation                    ... done (   0.0 sec)
  promolecular density results
     # of electrons  =     34.999995890
     EX              =    -89.665372858
     EC              =     -0.231299490
     EX+EC           =    -89.896672349
Transforming the Hamiltonian                       ... done (   0.0 sec)
Diagonalizing the Hamiltonian                      ... done (   0.0 sec)
Back transforming the eigenvectors                 ... done (   0.0 sec)
Now organizing SCF variables                       ... done
                      ------------------
                      INITIAL GUESS DONE (   0.2 sec)
                      ------------------
--------------
SCF ITERATIONS
--------------
ITER       Energy         Delta-E        Max-DP      RMS-DP      [F,P]     Damp
  0  -2573.3007220357   0.000000000000 0.01021381  0.00045620  0.1532835 0.7000
  1  -2573.3900559470  -0.089333911319 0.01239298  0.00040949  0.1094383 0.7000
                               ***Turning on DIIS***
  2  -2573.3728387576   0.017217189396 0.03721864  0.00108284  0.0570210 0.0000
  3  -2573.3207165510   0.052122206531 0.00739923  0.00033605  0.0396629 0.0000
  4  -2573.3216223828  -0.000905831732 0.00101226  0.00004583  0.0018137 0.0000
  5  -2573.3216343997  -0.000012016939 0.00042725  0.00002178  0.0004305 0.0000
  6  -2573.3216364562  -0.000002056452 0.00015240  0.00000500  0.0000977 0.0000
                 **** Energy Check signals convergence ****

               *****************************************************
               *                     SUCCESS                       *
               *           SCF CONVERGED AFTER   7 CYCLES          *
               *****************************************************


----------------
TOTAL SCF ENERGY
----------------

Total Energy       :        -2573.32163656 Eh          -70023.64166 eV

Components:
Nuclear Repulsion  :            0.00000000 Eh               0.00000 eV
Electronic Energy  :        -2573.32163656 Eh          -70023.64166 eV
One Electron Energy:        -3581.66007731 Eh          -97461.92557 eV
Two Electron Energy:         1008.33844075 Eh           27438.28391 eV

Virial components:
Potential Energy   :        -5145.00092863 Eh         -140002.59286 eV
Kinetic Energy     :         2571.67929207 Eh           69978.95120 eV
Virial Ratio       :            2.00063863


DFT components:
N(Alpha)           :       18.000000187175 electrons
N(Beta)            :       17.000000184683 electrons
N(Total)           :       35.000000371859 electrons
E(X)               :      -26.004368747594 Eh       
E(C)               :       -0.910715396574 Eh       
E(XC)              :      -26.915084144168 Eh       
DFET-embed. en.    :        0.000000000000 Eh       

---------------
SCF CONVERGENCE
---------------

  Last Energy change         ...   -1.0068e-07  Tolerance :   1.0000e-06
  Last MAX-Density change    ...    4.4306e-05  Tolerance :   1.0000e-05
  Last RMS-Density change    ...    1.4812e-06  Tolerance :   1.0000e-06
  Last DIIS Error            ...    2.3059e-05  Tolerance :   1.0000e-06

             **** THE GBW FILE WAS UPDATED (TMD06_Br.gbw) ****
             **** DENSITY FILE WAS UPDATED (TMD06_Br.scfp) ****
             **** ENERGY FILE WAS UPDATED (TMD06_Br.en.tmp) ****
----------------------
UHF SPIN CONTAMINATION
----------------------

Warning: in a DFT calculation there is little theoretical justification to 
         calculate <S**2> as in Hartree-Fock theory. We will do it anyways
         but you should keep in mind that the values have only limited relevance

Expectation value of <S**2>     :     0.755619
Ideal value S*(S+1) for S=0.5   :     0.750000
Deviation                       :     0.005619

             **** THE GBW FILE WAS UPDATED (TMD06_Br.gbw) ****
             **** DENSITY FILE WAS UPDATED (TMD06_Br.scfp) ****
----------------
ORBITAL ENERGIES
----------------
                 SPIN UP ORBITALS
  NO   OCC          E(Eh)            E(eV) 
   0   1.0000    -487.492980    -13265.3584 
   1   1.0000     -64.244086     -1748.1704 
   2   1.0000     -57.769724     -1571.9941 
   3   1.0000     -57.762085     -1571.7862 
   4   1.0000     -57.762085     -1571.7862 
   5   1.0000      -9.466338      -257.5922 
   6   1.0000      -7.166980      -195.0234 
   7   1.0000      -7.144297      -194.4062 
   8   1.0000      -7.144297      -194.4062 
   9   1.0000      -3.037069       -82.6428 
  10   1.0000      -3.031667       -82.4959 
  11   1.0000      -3.031667       -82.4959 
  12   1.0000      -3.015572       -82.0579 
  13   1.0000      -3.015572       -82.0579 
  14   1.0000      -0.960736       -26.1430 
  15   1.0000      -0.470908       -12.8141 
  16   1.0000      -0.411060       -11.1855 
  17   1.0000      -0.411060       -11.1855 
  18   0.0000       0.059517         1.6196 
  19   0.0000       0.064358         1.7513 
  20   0.0000       0.064358         1.7513 
  21   0.0000       0.081870         2.2278 
  22   0.0000       0.167882         4.5683 
  23   0.0000       0.170314         4.6345 
  24   0.0000       0.170314         4.6345 
  25   0.0000       0.180644         4.9156 
  26   0.0000       0.180644         4.9156 
  27   0.0000       0.387365        10.5407 
  28   0.0000       0.409818        11.1517 
  29   0.0000       0.409818        11.1517 
  30   0.0000       0.501397        13.6437 
  31   0.0000       0.509388        13.8611 
  32   0.0000       0.509388        13.8611 
  33   0.0000       0.536183        14.5903 
  34   0.0000       0.536183        14.5903 
  35   0.0000       0.840409        22.8687 
  36   0.0000       1.596565        43.4447 
  37   0.0000       1.606273        43.7089 
  38   0.0000       1.606273        43.7089 
  39   0.0000       1.633000        44.4362 
  40   0.0000       1.638695        44.5911 
  41   0.0000       1.638695        44.5911 
  42   0.0000       1.639226        44.6056 
  43   0.0000       1.639226        44.6056 
  44   0.0000       1.657693        45.1081 
  45   0.0000       1.657693        45.1081 
  46   0.0000       1.689705        45.9792 
  47   0.0000       1.689705        45.9792 
  48   0.0000       1.776350        48.3369 
  49   0.0000       1.816883        49.4399 
  50   0.0000       1.816883        49.4399 
  51   0.0000       4.337425       118.0273 
  52   0.0000       4.347045       118.2891 
  53   0.0000       4.347045       118.2891 
  54   0.0000       4.376618       119.0938 
  55   0.0000       4.376618       119.0938 
  56   0.0000       7.532148       204.9602 

                 SPIN DOWN ORBITALS
  NO   OCC          E(Eh)            E(eV) 
   0   1.0000    -487.489303    -13265.2583 
   1   1.0000     -64.242055     -1748.1152 
   2   1.0000     -57.760844     -1571.7525 
   3   1.0000     -57.760844     -1571.7525 
   4   1.0000     -57.760006     -1571.7297 
   5   1.0000      -9.459625      -257.4095 
   6   1.0000      -7.144444      -194.4102 
   7   1.0000      -7.142248      -194.3505 
   8   1.0000      -7.142248      -194.3505 
   9   1.0000      -3.027390       -82.3795 
  10   1.0000      -3.024266       -82.2945 
  11   1.0000      -3.024266       -82.2945 
  12   1.0000      -3.014924       -82.0403 
  13   1.0000      -3.014924       -82.0403 
  14   1.0000      -0.878263       -23.8987 
  15   1.0000      -0.393498       -10.7076 
  16   1.0000      -0.393498       -10.7076 
  17   0.0000      -0.120877        -3.2892 
  18   0.0000       0.064800         1.7633 
  19   0.0000       0.064801         1.7633 
  20   0.0000       0.067408         1.8343 
  21   0.0000       0.086298         2.3483 
  22   0.0000       0.180609         4.9146 
  23   0.0000       0.180609         4.9146 
  24   0.0000       0.180669         4.9163 
  25   0.0000       0.180670         4.9163 
  26   0.0000       0.181943         4.9509 
  27   0.0000       0.413324        11.2471 
  28   0.0000       0.413324        11.2471 
  29   0.0000       0.423083        11.5127 
  30   0.0000       0.538988        14.6666 
  31   0.0000       0.538988        14.6666 
  32   0.0000       0.549512        14.9530 
  33   0.0000       0.549512        14.9530 
  34   0.0000       0.554065        15.0769 
  35   0.0000       0.857592        23.3363 
  36   0.0000       1.640385        44.6372 
  37   0.0000       1.640481        44.6398 
  38   0.0000       1.640481        44.6398 
  39   0.0000       1.642055        44.6826 
  40   0.0000       1.642055        44.6826 
  41   0.0000       1.685395        45.8619 
  42   0.0000       1.685905        45.8758 
  43   0.0000       1.685905        45.8758 
  44   0.0000       1.687654        45.9234 
  45   0.0000       1.687654        45.9234 
  46   0.0000       1.690939        46.0128 
  47   0.0000       1.690939        46.0128 
  48   0.0000       1.823199        49.6118 
  49   0.0000       1.823199        49.6118 
  50   0.0000       1.824436        49.6454 
  51   0.0000       4.359905       118.6390 
  52   0.0000       4.364444       118.7625 
  53   0.0000       4.364444       118.7625 
  54   0.0000       4.378668       119.1496 
  55   0.0000       4.378668       119.1496 
  56   0.0000       7.543929       205.2807 

                    ********************************
                    * MULLIKEN POPULATION ANALYSIS *
                    ********************************

--------------------------------------------
MULLIKEN ATOMIC CHARGES AND SPIN POPULATIONS
--------------------------------------------
   0 Br:    0.000000    1.000000
Sum of atomic charges         :    0.0000000
Sum of atomic spin populations:    1.0000000

-----------------------------------------------------
MULLIKEN REDUCED ORBITAL CHARGES AND SPIN POPULATIONS
-----------------------------------------------------
CHARGE
  0 Brs       :     7.997697  s :     7.997697
      pz      :     5.091327  p :    16.999038
      px      :     5.911269
      py      :     5.996442
      dz2     :     2.001713  d :    10.002303
      dxz     :     2.000555
      dyz     :     2.000021
      dx2y2   :     2.000013
      dxy     :     2.000002
      f0      :     0.000337  f :     0.000962
      f+1     :     0.000280
      f-1     :     0.000223
      f+2     :     0.000059
      f-2     :     0.000059
      f+3     :     0.000002
      f-3     :     0.000002

SPIN
  0 Brs       :    -0.000059  s :    -0.000059
      pz      :     0.907896  p :     0.999055
      px      :     0.088156
      py      :     0.003003
      dz2     :     0.000044  d :     0.000059
      dxz     :     0.000014
      dyz     :     0.000001
      dx2y2   :     0.000000
      dxy     :     0.000000
      f0      :     0.000333  f :     0.000945
      f+1     :     0.000277
      f-1     :     0.000216
      f+2     :     0.000058
      f-2     :     0.000057
      f+3     :     0.000002
      f-3     :     0.000002


                     *******************************
                     * LOEWDIN POPULATION ANALYSIS *
                     *******************************

-------------------------------------------
LOEWDIN ATOMIC CHARGES AND SPIN POPULATIONS
-------------------------------------------
   0 Br:   -0.000000    1.000000

----------------------------------------------------
LOEWDIN REDUCED ORBITAL CHARGES AND SPIN POPULATIONS
----------------------------------------------------
CHARGE
  0 Brs       :     7.997697  s :     7.997697
      pz      :     5.091327  p :    16.999038
      px      :     5.911269
      py      :     5.996442
      dz2     :     2.001713  d :    10.002303
      dxz     :     2.000555
      dyz     :     2.000021
      dx2y2   :     2.000013
      dxy     :     2.000002
      f0      :     0.000337  f :     0.000962
      f+1     :     0.000280
      f-1     :     0.000223
      f+2     :     0.000059
      f-2     :     0.000059
      f+3     :     0.000002
      f-3     :     0.000002

SPIN
  0 Brs       :    -0.000059  s :    -0.000059
      pz      :     0.907896  p :     0.999055
      px      :     0.088156
      py      :     0.003003
      dz2     :     0.000044  d :     0.000059
      dxz     :     0.000014
      dyz     :     0.000001
      dx2y2   :     0.000000
      dxy     :     0.000000
      f0      :     0.000333  f :     0.000945
      f+1     :     0.000277
      f-1     :     0.000216
      f+2     :     0.000058
      f-2     :     0.000057
      f+3     :     0.000002
      f-3     :     0.000002


                      *****************************
                      * MAYER POPULATION ANALYSIS *
                      *****************************

  NA   - Mulliken gross atomic population
  ZA   - Total nuclear charge
  QA   - Mulliken gross atomic charge
  VA   - Mayer's total valence
  BVA  - Mayer's bonded valence
  FA   - Mayer's free valence

  ATOM       NA         ZA         QA         VA         BVA        FA
  0 Br    35.0000    35.0000    -0.0000     1.0112     0.0000     1.0112

  Mayer bond orders larger than 0.100000


-------
TIMINGS
-------

Total SCF time: 0 days 0 hours 0 min 1 sec 

Total time                  ....       1.191 sec
Sum of individual times     ....       1.100 sec  ( 92.3%)

Fock matrix formation       ....       0.861 sec  ( 72.3%)
  XC integration            ....       0.059 sec  (  6.9% of F)
    Basis function eval.    ....       0.006 sec  (  9.9% of XC)
    Density eval.           ....       0.005 sec  (  8.8% of XC)
    XC-Functional eval.     ....       0.005 sec  (  7.9% of XC)
    XC-Potential eval.      ....       0.007 sec  ( 11.8% of XC)
Diagonalization             ....       0.009 sec  (  0.8%)
Density matrix formation    ....       0.003 sec  (  0.2%)
Population analysis         ....       0.003 sec  (  0.3%)
Initial guess               ....       0.097 sec  (  8.1%)
Orbital Transformation      ....       0.000 sec  (  0.0%)
Orbital Orthonormalization  ....       0.000 sec  (  0.0%)
DIIS solution               ....       0.004 sec  (  0.4%)
Grid generation             ....       0.122 sec  ( 10.3%)


           ************************************************************
           *        Program running with 24 parallel MPI-processes    *
           *              working on a common directory               *
           ************************************************************

------------------------------------------------------------------------------
                                ORCA  MP2 
------------------------------------------------------------------------------

Freezing NCore=18 chemical core electrons

-------------
RI-MP2 ENERGY
-------------
Dimension of the basis                    ...   57
Memory devoted to MP2                     ... 5000 MB   
Data format for buffers                   ... DOUBLE
Compression type for matrix containers    ... UNCOMPRESSED
Scaling for aa/bb pairs                   ...   4.000e-01
Scaling for ab pairs                      ...   4.700e-01
Overall scaling of the MP2 energy         ...   1.000e+00
Calculating two index integrals           ... done (    0.002 sec)
Cholesky decomposition of V**-1           ... done (    0.004 sec)

-----------------
RI-TRANSFORMATION (AUX index driven)
-----------------

Dimension of the orbital-basis         ... 57
Dimension of the aux-basis             ... 175
Transformation of internal/external MOs...    9-  17 to   18-  56
Number Format for Storage              ... Double (8 Byte)
Integral mode                          ... Direct

First Phase: integral generation and transformation of MO indices
  Aux angular momentum 0               ... done (    0.000 sec)
  Aux angular momentum 1               ... done (    0.000 sec)
  Aux angular momentum 2               ... done (    0.000 sec)
  Aux angular momentum 3               ... done (    0.001 sec)
  Aux angular momentum 4               ... done (    0.001 sec)
  Aux angular momentum 5               ... done (    0.001 sec)
Closing buffer VIA ( 0.00 GB; CompressionRatio= 1.00)
  Phase 1 completed in     0.099 sec
Second Phase: sorting and transformation of aux index

IA-Transformation
Memory available                       ... 5000 MB 
Max. # MO pairs treated in a batch     ... 1    
# of internal orbitals                 ... 9
# batches for internal orbitals        ... 1
Closing buffer IAV ( 0.00 GB; CompressionRatio= 1.00)
(ia|v) transformation done in     0.001 sec

  Phase 2 completed in     0.004 sec
RI-Integral transformation completed in     0.103 sec

-----------------
RI-TRANSFORMATION (AUX index driven)
-----------------

Dimension of the orbital-basis         ... 57
Dimension of the aux-basis             ... 175
Transformation of internal/external MOs...    9-  16 to   17-  56
Number Format for Storage              ... Double (8 Byte)
Integral mode                          ... Direct

First Phase: integral generation and transformation of MO indices
  Aux angular momentum 0               ... done (    0.000 sec)
  Aux angular momentum 1               ... done (    0.000 sec)
  Aux angular momentum 2               ... done (    0.000 sec)
  Aux angular momentum 3               ... done (    0.001 sec)
  Aux angular momentum 4               ... done (    0.001 sec)
  Aux angular momentum 5               ... done (    0.001 sec)
Closing buffer VIA ( 0.00 GB; CompressionRatio= 1.00)
  Phase 1 completed in     0.073 sec
Second Phase: sorting and transformation of aux index

IA-Transformation
Memory available                       ... 5000 MB 
Max. # MO pairs treated in a batch     ... 1    
# of internal orbitals                 ... 8
# batches for internal orbitals        ... 1
Closing buffer IAV ( 0.00 GB; CompressionRatio= 1.00)
(ia|v) transformation done in     0.001 sec

  Phase 2 completed in     0.003 sec
RI-Integral transformation completed in     0.077 sec
Opening buffers                              ... done

Starting loop over batches of integrals:

Operator 0  - window                       ... (  9- 17)x( 18- 56)
Operator 0  - Memory available             ...  5000 MB
Operator 0  - Memory needed per MO         ...   0.1 MB
Operator 0  - Number of orbitals per batch ... 1
Operator 0  - Number of batches            ... 1

OPERATOR  0   PASS   0:  MOs     9 ...    9 +   10 ...   10 +   11 ...   11 +   12 ...   12
                            +   13 ...   13 +   14 ...   14 +   15 ...   15 +   16 ...   16
                            +   17 ...   17
  Reading integrals       ... ok

Operator 1  - window                       ... (  9- 16)x( 17- 56)
Operator 1  - Memory available             ...  5000 MB
Operator 1  - Memory needed per MO         ...   0.1 MB
Operator 1  - Number of orbitals per batch ... 1
Operator 1  - Number of batches            ... 1

OPERATOR  1   PASS   0:  MOs     9 ...    9 +   10 ...   10 +   11 ...   11 +   12 ...   12
                            +   13 ...   13 +   14 ...   14 +   15 ...   15 +   16 ...   16
  Reading integrals       ... ok
Time spent in pair loops =     0.003 sec
Deleting buffer (Ka|jb)[aa] ...done
Deleting buffer (Ka|jb)[ab] ...done
Deleting buffer (Ka|jb)[ba] ...done
Deleting buffer (Ka|jb)[bb] ...done

Spin-scaled correlation energy components}
 E2 and T2 for alpha/alpha pairs :     -0.019149560 Eh      0.000000000
 E2 and T2 for beta/beta   pairs :     -0.013524179 Eh      0.000000000
 E2 and T2 for alpha/beta  pairs :     -0.089327436 Eh      0.000000000


-----------------------------------------------
 RI-MP2 CORRELATION ENERGY:     -0.122001176 Eh
-----------------------------------------------


-------
TIMINGS
-------

Total time                :    0.220 sec
Integral trafo            :    0.210 sec ( 95.6%)
I/O of integrals          :    0.000 sec (  0.0%)
K(i,j) Operators          :    0.000 sec (  0.1%)
T(i,j) pair energies      :    0.000 sec (  0.0%)
V-calculation             :    0.002 sec (  0.9%)
V**(-1/2)                 :    0.004 sec (  1.7%)
Gamma(ia|P)               :    0.000 sec (  0.0%)
Gamma-Trafo               :    0.000 sec (  0.0%)
D(virtual)                :    0.000 sec (  0.0%)
D(internal)               :    0.000 sec (  0.0%)
W(virtual)                :    0.000 sec (  0.0%)
W(internal)               :    0.000 sec (  0.0%)
L(virtual)                :    0.000 sec (  0.0%)
L(internal)               :    0.000 sec (  0.0%)
G(D)                      :    0.000 sec (  0.0%)
G(Z)                      :    0.000 sec (  0.0%)
Z-Vector Solution         :    0.000 sec (  0.0%)
Z-Vector Solution         :    0.000 sec (  0.0%)
3-Index Derivative 
+ Separable RIJ part      :    0.000 sec (  0.0%)
2-Index Derivative 
+ Separable RIJ part      :    0.000 sec (  0.0%)
Separable Gradient (X)    :    0.000 sec (  0.0%)


---------------------------------------
MP2 TOTAL ENERGY:    -2573.443637733 Eh
---------------------------------------


-------------------------------------------------------------------------------
                          DFT DISPERSION CORRECTION                            
                                                                               
                              DFTD3 V3.1  Rev 1                                
                          USING Becke-Johnson damping                          
-------------------------------------------------------------------------------
The DSD-BLYP/2013 functional is recognized
Active option DFTDOPT                   ...         4   

molecular C6(AA) [au] = 167.168230 


            DFT-D V3
 parameters
 s6 scaling factor         :     0.5700 
 a1 scaling factor         :     0.0000 
 s8 scaling factor         :     0.0000 
 a2 scaling factor         :     5.4000 
 ad hoc parameters k1-k3   :    16.0000     1.3333    -4.0000 

 Edisp/kcal,au: -0.000000000000  -0.000000000000 
 E6   /kcal   :  -0.000000000 
 E8   /kcal   :  -0.000000000 
 % E8         :          -nan 

-------------------------   ----------------
Dispersion correction            0.000000000
-------------------------   ----------------


-------------------------   --------------------
FINAL SINGLE POINT ENERGY     -2573.443637732648
-------------------------   --------------------


                            ***************************************
                            *     ORCA property calculations      *
                            ***************************************


  WARNING: The energy has been calculated at the MP2 level but the densities
           used in the property calculations are still SCF densities
           MP2 response densities have not been calculated 
           use %mp2 Density relaxed end
           or  %mp2 Density unrelaxed end

                                    ---------------------
                                    Active property flags
                                    ---------------------
   (+) Dipole Moment


------------------------------------------------------------------------------
                       ORCA ELECTRIC PROPERTIES CALCULATION
------------------------------------------------------------------------------

Dipole Moment Calculation                       ... on
Quadrupole Moment Calculation                   ... off
Polarizability Calculation                      ... off
GBWName                                         ... TMD06_Br.gbw
Electron density file                           ... TMD06_Br.scfp
The origin for moment calculation is the CENTER OF MASS  = ( 0.000000,  0.000000  0.000000)

-------------
DIPOLE MOMENT
-------------
                                X             Y             Z
Electronic contribution:     -0.00000      -0.00000      -0.00000
Nuclear contribution   :      0.00000       0.00000       0.00000
                        -----------------------------------------
Total Dipole Moment    :     -0.00000      -0.00000      -0.00000
                        -----------------------------------------
Magnitude (a.u.)       :      0.00000
Magnitude (Debye)      :      0.00000



--------------------
Rotational spectrum 
--------------------
 
Rotational constants in cm-1:     0.000000     0.000000     0.000000 
Rotational constants in MHz :     0.000000     0.000000     0.000000 

 Dipole components along the rotational axes: 
x,y,z [a.u.] :    -0.000000    -0.000000    -0.000000 
x,y,z [Debye]:    -0.000000    -0.000000    -0.000000 

 

Timings for individual modules:

Sum of individual times         ...        2.779 sec (=   0.046 min)
GTO integral calculation        ...        0.553 sec (=   0.009 min)  19.9 %
SCF iterations                  ...        1.535 sec (=   0.026 min)  55.2 %
MP2 module                      ...        0.691 sec (=   0.012 min)  24.9 %
                             ****ORCA TERMINATED NORMALLY****
TOTAL RUN TIME: 0 days 0 hours 0 minutes 3 seconds 281 msec
