
                                 *****************
                                 * O   R   C   A *
                                 *****************

           --- An Ab Initio, DFT and Semiempirical electronic structure package ---

                  #######################################################
                  #                        -***-                        #
                  #          Department of theory and spectroscopy      #
                  #               Directorship: Frank Neese             #
                  #        Max Planck Institute fuer Kohlenforschung    #
                  #                Kaiser Wilhelm Platz 1               #
                  #                 D-45470 Muelheim/Ruhr               #
                  #                      Germany                        #
                  #                                                     #
                  #                  All rights reserved                #
                  #                        -***-                        #
                  #######################################################


                         Program Version 4.2.0 -  RELEASE  -


 With contributions from (in alphabetic order):
   Daniel Aravena         : Magnetic Suceptibility
   Michael Atanasov       : Ab Initio Ligand Field Theory (pilot matlab implementation)
   Alexander A. Auer      : GIAO ZORA, VPT2
   Ute Becker             : Parallelization
   Giovanni Bistoni       : ED, misc. LED, open-shell LED, HFLED
   Martin Brehm           : Molecular dynamics
   Dmytro Bykov           : SCF Hessian
   Vijay G. Chilkuri      : MRCI spin determinant printing, contributions to CSF-ICE
   Dipayan Datta          : RHF DLPNO-CCSD density
   Achintya Kumar Dutta   : EOM-CC, STEOM-CC
   Dmitry Ganyushin       : Spin-Orbit,Spin-Spin,Magnetic field MRCI
   Miquel Garcia          : C-PCM Hessian, Gaussian charge scheme
   Yang Guo               : DLPNO-NEVPT2, CIM, IAO-localization
   Andreas Hansen         : Spin unrestricted coupled pair/coupled cluster methods
   Benjamin Helmich-Paris : CASSCF linear response (MC-RPA)
   Lee Huntington         : MR-EOM, pCC
   Robert Izsak           : Overlap fitted RIJCOSX, COSX-SCS-MP3, EOM
   Christian Kollmar      : KDIIS, OOCD, Brueckner-CCSD(T), CCSD density
   Simone Kossmann        : Meta GGA functionals, TD-DFT gradient, OOMP2, MP2 Hessian
   Martin Krupicka        : AUTO-CI
   Lucas Lang             : DCDCAS
   Dagmar Lenk            : GEPOL surface, SMD
   Dimitrios Liakos       : Extrapolation schemes; Compound Job, initial MDCI parallelization
   Dimitrios Manganas     : Further ROCIS development; embedding schemes
   Dimitrios Pantazis     : SARC Basis sets
   Taras Petrenko         : DFT Hessian,TD-DFT gradient, ASA, ECA, R-Raman, ABS, FL, XAS/XES, NRVS
   Peter Pinski           : DLPNO-MP2, DLPNO-MP2 Gradient
   Christoph Reimann      : Effective Core Potentials
   Marius Retegan         : Local ZFS, SOC
   Christoph Riplinger    : Optimizer, TS searches, QM/MM, DLPNO-CCSD(T), (RO)-DLPNO pert. Triples
   Tobias Risthaus        : Range-separated hybrids, TD-DFT gradient, RPA, STAB
   Michael Roemelt        : Original ROCIS implementation
   Masaaki Saitow         : Open-shell DLPNO-CCSD energy and density
   Barbara Sandhoefer     : DKH picture change effects
   Avijit Sen             : IP-ROCIS
   Kantharuban Sivalingam : CASSCF convergence, NEVPT2, FIC-MRCI
   Bernardo de Souza      : ESD, SOC TD-DFT
   Georgi Stoychev        : AutoAux, RI-MP2 NMR
   Willem Van den Heuvel  : Paramagnetic NMR
   Boris Wezisla          : Elementary symmetry handling
   Frank Wennmohs         : Technical directorship


 We gratefully acknowledge several colleagues who have allowed us to
 interface, adapt or use parts of their codes:
   Stefan Grimme, W. Hujo, H. Kruse,             : VdW corrections, initial TS optimization,
                  C. Bannwarth                     DFT functionals, gCP, sTDA/sTD-DF
   Ed Valeev, F. Pavosevic, A. Kumar             : LibInt (2-el integral package), F12 methods
   Garnet Chan, S. Sharma, J. Yang, R. Olivares  : DMRG
   Ulf Ekstrom                                   : XCFun DFT Library
   Mihaly Kallay                                 : mrcc  (arbitrary order and MRCC methods)
   Andreas Klamt, Michael Diedenhofen            : otool_cosmo (COSMO solvation model)
   Jiri Pittner, Ondrej Demel                    : Mk-CCSD
   Frank Weinhold                                : gennbo (NPA and NBO analysis)
   Christopher J. Cramer and Donald G. Truhlar   : smd solvation model
   Lars Goerigk                                  : TD-DFT with DH, B97 family of functionals
   V. Asgeirsson, H. Jonsson                     : NEB implementation
   FAccTs GmbH                                   : IRC, NEB, NEB-TS, Multilevel, MM, QM/MM, CI optimization
   S Lehtola, MJT Oliveira, MAL Marques          : LibXC Library


 Your calculation uses the libint2 library for the computation of 2-el integrals
 For citations please refer to: http://libint.valeyev.net

 Your ORCA version has been built with support for libXC version: 4.2.3
 For citations please refer to: https://tddft.org/programs/libxc/

 This ORCA versions uses:
   CBLAS   interface :  Fast vector & matrix operations
   LAPACKE interface :  Fast linear algebra routines
   SCALAPACK package :  Parallel linear algebra routines


Your calculation utilizes the atom-pairwise dispersion correction
with the Becke-Johnson damping scheme (D3BJ)
Cite in your paper:
S.Grimme, S.Ehrlich, L.Goerigk, J Comput Chem, (2011), 32, 1456–1465 
S.Grimme, J.Antony, S.Ehrlich and H.Krieg, J.Chem.Phys., 132, (2010), 154104 
   

----- Orbital basis set information -----
Your calculation utilizes the basis: def2-TZVPPD
   F. Weigend and R. Ahlrichs, Phys. Chem. Chem. Phys. 7, 3297 (2005).
   D. Rappoport and F. Furche, J. Chem. Phys. 133 134105 (2010).

----- AuxC basis set information -----
Your calculation utilizes the auxiliary basis: def2-TZVPPD/C
   A. Hellweg, C. Hattig, S. Hofener and W. Klopper, Theor. Chem. Acc. 117, 587 (2007).

----- AuxJK basis set information -----
Your calculation utilizes the auxiliary basis: def2/JK
   H-Ba, Hf-Rn: F. Weigend, J. Comput. Chem. 29, 167 (2008).

================================================================================
                                        WARNINGS
                       Please study these warnings very carefully!
================================================================================


WARNING: No MP2 level density has been requested!
         To caclulate MP2 level properties use
         %mp2 Density relaxed end
         or
         %mp2 Density unrelaxed end
         Otherwise for double-hybrid DFT only the energy is correct!

WARNING: There are different parametrizations of Gershom Martin's DSD-DFs
         for use with and without D3(BJ)!
         You are using the D3(BJ) parametrized version,
         consistent with the 2013 article (S. Kozuch and J. M. L. Martin, JCC 2013, 34, 2327)

WARNING: The frozen-core approximation is turned on by default for 
         the MP2 part of double-hybrid DFT.

INFO   : the flag for use of LIBINT has been found!

================================================================================
                                       INPUT FILE
================================================================================
NAME = TMD14_Zn.in
|  1> #
|  2> # TMD14_Zn ri-DSD-BLYP/2013-D3BJ/Def2-TZVPPD
|  3> #
|  4> ! rijk ri-dsd-blyp/2013 d3bj def2-tzvppd def2/jk def2-tzvppd/c grid4 nofinalgrid
|  5> 
|  6> *xyz 0 1
|  7> Zn       0.000000    0.000000    0.000000 
|  8> *
|  9> 
| 10> %maxcore 5000
| 11> 
| 12> %pal
| 13> nprocs = 24
| 14> end
| 15> 
| 16> 
| 17>                          ****END OF INPUT****
================================================================================

                       ****************************
                       * Single Point Calculation *
                       ****************************

---------------------------------
CARTESIAN COORDINATES (ANGSTROEM)
---------------------------------
  Zn     0.000000    0.000000    0.000000

----------------------------
CARTESIAN COORDINATES (A.U.)
----------------------------
  NO LB      ZA    FRAG     MASS         X           Y           Z
   0 Zn   30.0000    0    65.380    0.000000    0.000000    0.000000

--------------------------------
INTERNAL COORDINATES (ANGSTROEM)
--------------------------------
 Zn     0   0   0     0.000000000000     0.00000000     0.00000000

---------------------------
INTERNAL COORDINATES (A.U.)
---------------------------
 Zn     0   0   0     0.000000000000     0.00000000     0.00000000

---------------------
BASIS SET INFORMATION
---------------------
There are 1 groups of distinct atoms

 Group   1 Type Zn  : 17s13p7d2f1g contracted to 6s6p4d2f1g pattern {842111/631111/4111/11/1}

Atom   0Zn   basis set group =>   1
---------------------------------
AUXILIARY/C BASIS SET INFORMATION
---------------------------------
There are 1 groups of distinct atoms

 Group   1 Type Zn  : 10s11p9d7f5g3h1i contracted to 10s11p9d7f5g3h1i pattern {1111111111/11111111111/111111111/1111111/11111/111/1}

Atom   0Zn   basis set group =>   1
----------------------------------
AUXILIARY/JK BASIS SET INFORMATION
----------------------------------
There are 1 groups of distinct atoms

 Group   1 Type Zn  : 19s14p12d10f7g3h1i contracted to 16s13p11d9f5g3h1i pattern {4111111111111111/2111111111111/21111111111/211111111/31111/111/1}

Atom   0Zn   basis set group =>   1


           ************************************************************
           *        Program running with 24 parallel MPI-processes    *
           *              working on a common directory               *
           ************************************************************
------------------------------------------------------------------------------
                           ORCA GTO INTEGRAL CALCULATION
                           -- RI-GTO INTEGRALS CHOSEN --
------------------------------------------------------------------------------

                         BASIS SET STATISTICS AND STARTUP INFO

Gaussian basis set:
 # of primitive gaussian shells          ...   40
 # of primitive gaussian functions       ...  114
 # of contracted shells                  ...   19
 # of contracted basis functions         ...   67
 Highest angular momentum                ...    4
 Maximum contraction depth               ...    8
Auxiliary gaussian basis set:
 # of primitive gaussian shells          ...   66
 # of primitive gaussian functions       ...  300
 # of contracted shells                  ...   58
 # of contracted aux-basis functions     ...  264
 Highest angular momentum                ...    6
 Maximum contraction depth               ...    4
Ratio of auxiliary to basis functions    ...  3.94
Integral package used                  ... LIBINT
 One Electron integrals                  ... done
 Ordering auxiliary basis shells         ... done
 Integral threshhold             Thresh  ...  1.000e-10
 Primitive cut-off               TCut    ...  1.000e-11
 Pre-screening matrix                    ... done
 Shell pair data                         ... 
 Ordering of the shell pairs             ... done (   0.000 sec) 190 of 190 pairs
 Determination of significant pairs      ... done (   0.000 sec)
 Creation of shell pair data             ... done (   0.000 sec)
 Storage of shell pair data              ... done (   0.028 sec)
 Shell pair data done in (   0.028 sec)
 Computing two index integrals           ... done
 Cholesky decomposition of the V-matrix  ... done


Timings:
 Total evaluation time                   ...   0.196 sec (  0.003 min)
 One electron matrix time                ...   0.016 sec (  0.000 min) =  8.1%
 Schwartz matrix evaluation time         ...   0.099 sec (  0.002 min) = 50.8%
 Two index repulsion integral time       ...   0.013 sec (  0.000 min) =  6.7%
 Cholesky decomposition of V             ...   0.001 sec (  0.000 min) =  0.7%
 Three index repulsion integral time     ...   0.000 sec (  0.000 min) =  0.0%



           ************************************************************
           *        Program running with 24 parallel MPI-processes    *
           *              working on a common directory               *
           ************************************************************
-------------------------------------------------------------------------------
                                 ORCA SCF
-------------------------------------------------------------------------------

------------
SCF SETTINGS
------------
Hamiltonian:
 Density Functional     Method          .... DFT(GTOs)
 Exchange Functional    Exchange        .... B88
   X-Alpha parameter    XAlpha          ....  0.666667
   Becke's b parameter  XBeta           ....  0.004200
 Correlation Functional Correlation     .... LYP
 LDA part of GGA corr.  LDAOpt          .... VWN-5
 Gradients option       PostSCFGGA      .... off
 Hybrid DFT is turned on
   Fraction HF Exchange ScalHFX         ....  0.710000
   Scaling of DF-GGA-X  ScalDFX         ....  0.290000
   Scaling of DF-GGA-C  ScalDFC         ....  0.540000
   Scaling of DF-LDA-C  ScalLDAC        ....  0.540000
   Perturbative correction              ....  1.000000
   Density functional embedding theory  .... OFF
 RI-approximation to the Coulomb term is turned on
   Number of auxiliary basis functions  .... 264
   RI-JK (J+K treated both via RI)      .... on


General Settings:
 Integral files         IntName         .... TMD14_Zn
 Hartree-Fock type      HFTyp           .... RHF
 Total Charge           Charge          ....    0
 Multiplicity           Mult            ....    1
 Number of Electrons    NEL             ....   30
 Basis Dimension        Dim             ....   67
 Nuclear Repulsion      ENuc            ....      0.0000000000 Eh

Convergence Acceleration:
 DIIS                   CNVDIIS         .... on
   Start iteration      DIISMaxIt       ....    12
   Startup error        DIISStart       ....  0.200000
   # of expansion vecs  DIISMaxEq       ....     5
   Bias factor          DIISBfac        ....   1.050
   Max. coefficient     DIISMaxC        ....  10.000
 Newton-Raphson         CNVNR           .... off
 SOSCF                  CNVSOSCF        .... off
 Level Shifting         CNVShift        .... on
   Level shift para.    LevelShift      ....    0.2500
   Turn off err/grad.   ShiftErr        ....    0.0010
 Zerner damping         CNVZerner       .... off
 Static damping         CNVDamp         .... on
   Fraction old density DampFac         ....    0.7000
   Max. Damping (<1)    DampMax         ....    0.9800
   Min. Damping (>=0)   DampMin         ....    0.0000
   Turn off err/grad.   DampErr         ....    0.1000
 Fernandez-Rico         CNVRico         .... off

SCF Procedure:
 Maximum # iterations   MaxIter         ....   125
 SCF integral mode      SCFMode         .... Direct
   Integral package                     .... LIBINT
 Reset frequency        DirectResetFreq ....    20
 Integral Threshold     Thresh          ....  1.000e-10 Eh
 Primitive CutOff       TCut            ....  1.000e-11 Eh

Convergence Tolerance:
 Convergence Check Mode ConvCheckMode   .... Total+1el-Energy
 Convergence forced     ConvForced      .... 0
 Energy Change          TolE            ....  1.000e-06 Eh
 1-El. energy change                    ....  1.000e-03 Eh
 DIIS Error             TolErr          ....  1.000e-06


Diagonalization of the overlap matrix:
Smallest eigenvalue                        ... 6.068e-02
Time for diagonalization                   ...    0.002 sec
Threshold for overlap eigenvalues          ... 1.000e-08
Number of eigenvalues below threshold      ... 0
Time for construction of square roots      ...    0.001 sec
Total time needed                          ...    0.004 sec

-------------------
DFT GRID GENERATION
-------------------

General Integration Accuracy     IntAcc      ...  4.670
Radial Grid Type                 RadialGrid  ... Gauss-Chebyshev
Angular Grid (max. acc.)         AngularGrid ... Lebedev-302
Angular grid pruning method      GridPruning ... 3 (G Style)
Weight generation scheme         WeightScheme... Becke
Basis function cutoff            BFCut       ...    1.0000e-10
Integration weight cutoff        WCut        ...    1.0000e-14
Grids for H and He will be reduced by one unit

# of grid points (after initial pruning)     ...   9640 (   0.0 sec)
# of grid points (after weights+screening)   ...   9640 (   0.0 sec)
Grid point division into batches done        ...    0.1 sec
Reduced shell lists constructed in    0.1 sec

Total number of grid points                  ...     9640
Total number of batches                      ...      151
Average number of points per batch           ...       63
Average number of grid points per atom       ...     9640
Average number of shells per batch           ...     3.75 (19.74%)
Average number of basis functions per batch  ...    11.00 (16.42%)
Average number of large shells per batch     ...     2.62 (70.00%)
Average number of large basis fcns per batch ...     6.12 (55.68%)
Average number of aux-shells per batch       ...     3.75 ( 6.47%)
Average number of aux functions per batch    ...    11.00 ( 4.17%)
Maximum spatial batch extension              ...  22.45, 20.42, 18.83 au
Average spatial batch extension              ...   0.86,  0.81,  0.78 au

Time for grid setup =    0.123 sec

------------------------------
INITIAL GUESS: MODEL POTENTIAL
------------------------------
Loading Hartree-Fock densities                     ... done
Calculating cut-offs                               ... done
Setting up the integral package                    ... done
Initializing the effective Hamiltonian             ... done
Starting the Coulomb interaction                   ... done (   0.0 sec)
Reading the grid                                   ... done
Mapping shells                                     ... done
Starting the XC term evaluation                    ... done (   0.0 sec)
  promolecular density results
     # of electrons  =     30.000011373
     EX              =    -69.862932184
     EC              =     -0.203295351
     EX+EC           =    -70.066227534
Transforming the Hamiltonian                       ... done (   0.0 sec)
Diagonalizing the Hamiltonian                      ... done (   0.0 sec)
Back transforming the eigenvectors                 ... done (   0.0 sec)
Now organizing SCF variables                       ... done
                      ------------------
                      INITIAL GUESS DONE (   0.2 sec)
                      ------------------
--------------
SCF ITERATIONS
--------------
ITER       Energy         Delta-E        Max-DP      RMS-DP      [F,P]     Damp
  0  -1778.5439091326   0.000000000000 0.03145752  0.00191447  0.3547439 0.7000
  1  -1778.9042491903  -0.360340057709 0.02013276  0.00130063  0.2225970 0.7000
                               ***Turning on DIIS***
  2  -1778.8219413877   0.082307802673 0.03734541  0.00218489  0.0666789 0.0000
  3  -1778.6335646553   0.188376732365 0.01653936  0.00041287  0.1302510 0.7000
  4  -1778.5912274775   0.042337177838 0.01931382  0.00043260  0.1127631 0.7000
  5  -1778.5994878790  -0.008260401570 0.06510786  0.00137905  0.0853452 0.0000
  6  -1778.6467314637  -0.047243584672 0.01139688  0.00025249  0.0043269 0.0000
  7  -1778.6467872256  -0.000055761929 0.00522529  0.00010433  0.0038495 0.0000
  8  -1778.6468001605  -0.000012934868 0.00310052  0.00005988  0.0007211 0.0000
                 **** Energy Check signals convergence ****

               *****************************************************
               *                     SUCCESS                       *
               *           SCF CONVERGED AFTER   9 CYCLES          *
               *****************************************************


----------------
TOTAL SCF ENERGY
----------------

Total Energy       :        -1778.64680099 Eh          -48399.44003 eV

Components:
Nuclear Repulsion  :            0.00000000 Eh               0.00000 eV
Electronic Energy  :        -1778.64680099 Eh          -48399.44003 eV
One Electron Energy:        -2483.65453700 Eh          -67583.67584 eV
Two Electron Energy:          705.00773602 Eh           19184.23580 eV

Virial components:
Potential Energy   :        -3556.13533388 Eh          -96767.36199 eV
Kinetic Energy     :         1777.48853289 Eh           48367.92196 eV
Virial Ratio       :            2.00065163


DFT components:
N(Alpha)           :       14.999999324008 electrons
N(Beta)            :       14.999999324008 electrons
N(Total)           :       29.999998648015 electrons
E(X)               :      -20.250871590840 Eh       
E(C)               :       -0.772501984544 Eh       
E(XC)              :      -21.023373575384 Eh       
DFET-embed. en.    :        0.000000000000 Eh       

---------------
SCF CONVERGENCE
---------------

  Last Energy change         ...   -8.2595e-07  Tolerance :   1.0000e-06
  Last MAX-Density change    ...    3.6580e-04  Tolerance :   1.0000e-05
  Last RMS-Density change    ...    7.0317e-06  Tolerance :   1.0000e-06
  Last DIIS Error            ...    3.2910e-05  Tolerance :   1.0000e-06

             **** THE GBW FILE WAS UPDATED (TMD14_Zn.gbw) ****
             **** DENSITY FILE WAS UPDATED (TMD14_Zn.scfp) ****
             **** ENERGY FILE WAS UPDATED (TMD14_Zn.en.tmp) ****
             **** THE GBW FILE WAS UPDATED (TMD14_Zn.gbw) ****
             **** DENSITY FILE WAS UPDATED (TMD14_Zn.scfp) ****
----------------
ORBITAL ENERGIES
----------------

  NO   OCC          E(Eh)            E(eV) 
   0   2.0000    -351.132342     -9554.7968 
   1   2.0000     -43.581226     -1185.9055 
   2   2.0000     -38.293888     -1042.0297 
   3   2.0000     -38.293888     -1042.0297 
   4   2.0000     -38.293888     -1042.0297 
   5   2.0000      -5.338330      -145.2633 
   6   2.0000      -3.607490       -98.1648 
   7   2.0000      -3.607490       -98.1648 
   8   2.0000      -3.607490       -98.1648 
   9   2.0000      -0.670328       -18.2406 
  10   2.0000      -0.670328       -18.2406 
  11   2.0000      -0.670328       -18.2406 
  12   2.0000      -0.670328       -18.2406 
  13   2.0000      -0.670328       -18.2406 
  14   2.0000      -0.276573        -7.5259 
  15   0.0000       0.013385         0.3642 
  16   0.0000       0.013385         0.3642 
  17   0.0000       0.013385         0.3642 
  18   0.0000       0.083113         2.2616 
  19   0.0000       0.083113         2.2616 
  20   0.0000       0.083113         2.2616 
  21   0.0000       0.198250         5.3947 
  22   0.0000       0.318489         8.6665 
  23   0.0000       0.318489         8.6665 
  24   0.0000       0.318489         8.6665 
  25   0.0000       0.318489         8.6665 
  26   0.0000       0.318489         8.6665 
  27   0.0000       0.348477         9.4825 
  28   0.0000       0.348477         9.4825 
  29   0.0000       0.348477         9.4825 
  30   0.0000       1.352099        36.7925 
  31   0.0000       1.352099        36.7925 
  32   0.0000       1.352099        36.7925 
  33   0.0000       1.352099        36.7925 
  34   0.0000       1.352099        36.7925 
  35   0.0000       2.647602        72.0449 
  36   0.0000       2.647602        72.0449 
  37   0.0000       2.647602        72.0449 
  38   0.0000       3.738366       101.7261 
  39   0.0000       4.142813       112.7317 
  40   0.0000       4.142813       112.7317 
  41   0.0000       4.142813       112.7317 
  42   0.0000       4.142813       112.7317 
  43   0.0000       4.142813       112.7317 
  44   0.0000       4.142813       112.7317 
  45   0.0000       4.142813       112.7317 
  46   0.0000       5.169748       140.6760 
  47   0.0000       5.169748       140.6760 
  48   0.0000       5.169748       140.6760 
  49   0.0000       5.169748       140.6760 
  50   0.0000       5.169748       140.6760 
  51   0.0000      14.768790       401.8792 
  52   0.0000      14.768790       401.8792 
  53   0.0000      14.768790       401.8792 
  54   0.0000      14.768790       401.8792 
  55   0.0000      14.768790       401.8792 
  56   0.0000      14.768790       401.8792 
  57   0.0000      14.768790       401.8792 
  58   0.0000      14.768790       401.8792 
  59   0.0000      14.768790       401.8792 
  60   0.0000      15.587908       424.1685 
  61   0.0000      15.587908       424.1685 
  62   0.0000      15.587908       424.1685 
  63   0.0000      15.587908       424.1685 
  64   0.0000      15.587908       424.1685 
  65   0.0000      15.587908       424.1685 
  66   0.0000      15.587908       424.1685 

                    ********************************
                    * MULLIKEN POPULATION ANALYSIS *
                    ********************************

-----------------------
MULLIKEN ATOMIC CHARGES
-----------------------
   0 Zn:   -0.000000
Sum of atomic charges:   -0.0000000

--------------------------------
MULLIKEN REDUCED ORBITAL CHARGES
--------------------------------
  0 Zns       :     8.000000  s :     8.000000
      pz      :     4.000000  p :    12.000000
      px      :     4.000000
      py      :     4.000000
      dz2     :     2.000000  d :    10.000000
      dxz     :     2.000000
      dyz     :     2.000000
      dx2y2   :     2.000000
      dxy     :     2.000000
      f0      :     0.000000  f :     0.000000
      f+1     :     0.000000
      f-1     :     0.000000
      f+2     :     0.000000
      f-2     :     0.000000
      f+3     :     0.000000
      f-3     :     0.000000
      g0      :     0.000000  g :     0.000000
      g+1     :     0.000000
      g-1     :     0.000000
      g+2     :     0.000000
      g-2     :     0.000000
      g+3     :     0.000000
      g-3     :     0.000000
      g+4     :     0.000000
      g-4     :     0.000000


                     *******************************
                     * LOEWDIN POPULATION ANALYSIS *
                     *******************************

----------------------
LOEWDIN ATOMIC CHARGES
----------------------
   0 Zn:   -0.000000

-------------------------------
LOEWDIN REDUCED ORBITAL CHARGES
-------------------------------
  0 Zns       :     8.000000  s :     8.000000
      pz      :     4.000000  p :    12.000000
      px      :     4.000000
      py      :     4.000000
      dz2     :     2.000000  d :    10.000000
      dxz     :     2.000000
      dyz     :     2.000000
      dx2y2   :     2.000000
      dxy     :     2.000000
      f0      :     0.000000  f :     0.000000
      f+1     :     0.000000
      f-1     :     0.000000
      f+2     :     0.000000
      f-2     :     0.000000
      f+3     :     0.000000
      f-3     :     0.000000
      g0      :     0.000000  g :     0.000000
      g+1     :     0.000000
      g-1     :     0.000000
      g+2     :     0.000000
      g-2     :     0.000000
      g+3     :     0.000000
      g-3     :     0.000000
      g+4     :     0.000000
      g-4     :     0.000000


                      *****************************
                      * MAYER POPULATION ANALYSIS *
                      *****************************

  NA   - Mulliken gross atomic population
  ZA   - Total nuclear charge
  QA   - Mulliken gross atomic charge
  VA   - Mayer's total valence
  BVA  - Mayer's bonded valence
  FA   - Mayer's free valence

  ATOM       NA         ZA         QA         VA         BVA        FA
  0 Zn    30.0000    30.0000    -0.0000    -0.0000     0.0000    -0.0000

  Mayer bond orders larger than 0.100000


--------------------------
ATOM BASIS FOR ELEMENT Zn
--------------------------
 NewGTO Zn
 S 17
    1     405924.310279999976         0.000236938568
    2      60846.955735000003         0.001837279160
    3      13847.343091999999         0.009556225832
    4       3919.615855100000         0.038871046959
    5       1276.359416700000         0.126744919772
    6        458.672544350000         0.301700567020
    7        178.287252460000         0.433793589227
    8         70.612192837000         0.230339329251
    9        443.880779500000        -0.000183008026
   10        137.558752670000        -0.000867392680
   11         22.268083479000         0.004063749067
   12          9.521731060600         0.003862762207
   13         14.874114065000         0.000930472078
   14          2.464751761200        -0.002886598844
   15          1.011327223800         0.001553914182
   16          0.149198520900        -0.000413279708
   17          0.051441873000         0.000186547954
 S 17
    1     405924.310279999976         0.000076257279
    2      60846.955735000003         0.000591317451
    3      13847.343091999999         0.003075614867
    4       3919.615855100000         0.012510416979
    5       1276.359416700000         0.040792104159
    6        458.672544350000         0.097100546333
    7        178.287252460000         0.139613905687
    8         70.612192837000         0.074133353255
    9        443.880779500000         0.026104652584
   10        137.558752670000         0.123726729424
   11         22.268083479000        -0.579661776080
   12          9.521731060600        -0.550992584498
   13         14.874114065000         0.013913330821
   14          2.464751761200        -0.043163256164
   15          1.011327223800         0.010148871978
   16          0.149198520900        -0.002192971613
   17          0.051441873000         0.000964463601
 S 17
    1     405924.310279999976         0.000028672393
    2      60846.955735000003         0.000222332696
    3      13847.343091999999         0.001156417325
    4       3919.615855100000         0.004703860386
    5       1276.359416700000         0.015337647268
    6        458.672544350000         0.036509367680
    7        178.287252460000         0.052494199141
    8         70.612192837000         0.027873806622
    9        443.880779500000         0.011788902548
   10        137.558752670000         0.055875187422
   11         22.268083479000        -0.261776178279
   12          9.521731060600        -0.248829125849
   13         14.874114065000        -0.240569923064
   14          2.464751761200         0.746318861264
   15          1.011327223800         0.474609453800
   16          0.149198520900         0.014777089682
   17          0.051441873000        -0.004838872241
 S 17
    1     405924.310279999976         0.000006312485
    2      60846.955735000003         0.000048948539
    3      13847.343091999999         0.000254595658
    4       3919.615855100000         0.001035597102
    5       1276.359416700000         0.003376720769
    6        458.672544350000         0.008037865127
    7        178.287252460000         0.011557069308
    8         70.612192837000         0.006136668818
    9        443.880779500000         0.002219919563
   10        137.558752670000         0.010521625836
   11         22.268083479000        -0.049293991265
   12          9.521731060600        -0.046855985280
   13         14.874114065000        -0.073192050750
   14          2.464751761200         0.227063330583
   15          1.011327223800         0.248595637784
   16          0.149198520900        -0.636843899378
   17          0.051441873000        -0.502374065000
 S 17
    1     405924.310279999976         0.000005380384
    2      60846.955735000003         0.000041720801
    3      13847.343091999999         0.000217002077
    4       3919.615855100000         0.000882680889
    5       1276.359416700000         0.002878114361
    6        458.672544350000         0.006850994392
    7        178.287252460000         0.009850553072
    8         70.612192837000         0.005230528629
    9        443.880779500000         0.002272975261
   10        137.558752670000         0.010773090894
   11         22.268083479000        -0.050472109226
   12          9.521731060600        -0.047975835315
   13         14.874114065000        -0.053152042143
   14          2.464751761200         0.164893312766
   15          1.011327223800         0.379591583142
   16          0.149198520900        -1.933734232602
   17          0.051441873000         1.757016513319
 S 17
    1     405924.310279999976        -0.000039496494
    2      60846.955735000003        -0.000306265404
    3      13847.343091999999        -0.001592975866
    4       3919.615855100000        -0.006479612429
    5       1276.359416700000        -0.021127755019
    6        458.672544350000        -0.050292001294
    7        178.287252460000        -0.072311258697
    8         70.612192837000        -0.038396433786
    9        443.880779500000         0.001744762853
   10        137.558752670000         0.008269552745
   11         22.268083479000        -0.038742991542
   12          9.521731060600        -0.036826821988
   13         14.874114065000         0.882875352104
   14          2.464751761200        -2.738939760336
   15          1.011327223800         2.808407538164
   16          0.149198520900        -1.121661918692
   17          0.051441873000         0.510019058097
 P 13
    1       2205.350853400000         0.002618469275
    2        522.353006990000         0.021335689286
    3        167.730555420000         0.100849447634
    4         62.670045373000         0.292755765537
    5         25.109749456000         0.474768671603
    6         10.225142681000         0.276002916776
    7         40.713442521000        -0.000507844023
    8          5.624709069600         0.009398559247
    9          2.227994911600         0.016164097132
   10          0.833547416900        -0.004479130638
   11          0.162455000000         0.001400788690
   12          0.047769000000        -0.000926693462
   13          0.021234841500         0.000435374420
 P 13
    1       2205.350853400000         0.001021560358
    2        522.353006990000         0.008323830484
    3        167.730555420000         0.039345047412
    4         62.670045373000         0.114214700681
    5         25.109749456000         0.185224573187
    6         10.225142681000         0.107678803417
    7         40.713442521000         0.018495658987
    8          5.624709069600        -0.342295151490
    9          2.227994911600        -0.588695770400
   10          0.833547416900        -0.260969269947
   11          0.162455000000        -0.008359507822
   12          0.047769000000         0.002179831338
   13          0.021234841500        -0.000912141776
 P 13
    1       2205.350853400000         0.000082028730
    2        522.353006990000         0.000668382674
    3        167.730555420000         0.003159308450
    4         62.670045373000         0.009171153493
    5         25.109749456000         0.014873067839
    6         10.225142681000         0.008646337365
    7         40.713442521000         0.001798865325
    8          5.624709069600        -0.033291210628
    9          2.227994911600        -0.057255835506
   10          0.833547416900        -0.016082691637
   11          0.162455000000         0.238239929101
   12          0.047769000000         0.122699319818
   13          0.021234841500         0.784911563746
 P 13
    1       2205.350853400000         0.000105160617
    2        522.353006990000         0.000856864840
    3        167.730555420000         0.004050225173
    4         62.670045373000         0.011757394800
    5         25.109749456000         0.019067234084
    6         10.225142681000         0.011084581896
    7         40.713442521000         0.002362407651
    8          5.624709069600        -0.043720566280
    9          2.227994911600        -0.075192746191
   10          0.833547416900        -0.002719956924
   11          0.162455000000         0.158356341905
   12          0.047769000000         1.501581248898
   13          0.021234841500        -1.521777102891
 P 13
    1       2205.350853400000         0.000209732967
    2        522.353006990000         0.001708936386
    3        167.730555420000         0.008077793422
    4         62.670045373000         0.023449018834
    5         25.109749456000         0.038027806223
    6         10.225142681000         0.022107156735
    7         40.713442521000         0.004551575872
    8          5.624709069600        -0.084235027988
    9          2.227994911600        -0.144871478549
   10          0.833547416900        -0.096748740732
   11          0.162455000000         1.508275483917
   12          0.047769000000        -1.929615551431
   13          0.021234841500         0.966255026391
 P 13
    1       2205.350853400000         0.000859596205
    2        522.353006990000         0.007004121728
    3        167.730555420000         0.033107053538
    4         62.670045373000         0.096106434200
    5         25.109749456000         0.155857986312
    6         10.225142681000         0.090606776306
    7         40.713442521000         0.025319337476
    8          5.624709069600        -0.468579490078
    9          2.227994911600        -0.805885688723
   10          0.833547416900         1.600769084057
   11          0.162455000000        -0.882040797475
   12          0.047769000000         0.603275249511
   13          0.021234841500        -0.279581749405
 D 7
    1         88.554315311000         0.012721231096
    2         25.721525557000         0.079351217004
    3          9.127836762400         0.244781549824
    4          3.431236406400         0.403685071347
    5          1.230892064500         0.396557037103
    6          0.390318451100         0.215422233568
    7          0.124000000000         0.022762215291
 D 7
    1         88.554315311000         0.002610337670
    2         25.721525557000         0.016282502010
    3          9.127836762400         0.050228039687
    4          3.431236406400         0.082834305933
    5          1.230892064500         0.041528142487
    6          0.390318451100         0.165288775124
    7          0.124000000000        -1.077278437873
 D 7
    1         88.554315311000         0.006622569020
    2         25.721525557000         0.041309595548
    3          9.127836762400         0.127431275821
    4          3.431236406400         0.210155151434
    5          1.230892064500         0.361186375548
    6          0.390318451100        -1.357891411905
    7          0.124000000000         0.650988051372
 D 7
    1         88.554315311000         0.018974308005
    2         25.721525557000         0.118356031784
    3          9.127836762400         0.365103069427
    4          3.431236406400         0.602115064379
    5          1.230892064500        -1.410741510780
    6          0.390318451100         0.802110364447
    7          0.124000000000        -0.265801184915
 F 2
    1          1.433000000000         0.983872216096
    2          5.694000000000         0.041606831401
 F 2
    1          1.433000000000        -0.436197573338
    2          5.694000000000         1.075426302529
 G 1
    1          3.617000000000         1.000000000000
 end
  // -----------------------------------------------
  // The basis set
  // -----------------------------------------------
  BAS[ATNO] = new BFNGauss[NSH];
  // Basis function   1 L = s
  InitBFNGauss(BAS[ATNO][  0]);
  BAS[ATNO][  0].l  = 0;
  BAS[ATNO][  0].ng = 17;
  BAS[ATNO][  0].a[  0] =    405924.310279999976;     BAS[ATNO][  0].d[  0] =         0.000236938568;
  BAS[ATNO][  0].a[  1] =     60846.955735000003;     BAS[ATNO][  0].d[  1] =         0.001837279160;
  BAS[ATNO][  0].a[  2] =     13847.343091999999;     BAS[ATNO][  0].d[  2] =         0.009556225832;
  BAS[ATNO][  0].a[  3] =      3919.615855100000;     BAS[ATNO][  0].d[  3] =         0.038871046959;
  BAS[ATNO][  0].a[  4] =      1276.359416700000;     BAS[ATNO][  0].d[  4] =         0.126744919772;
  BAS[ATNO][  0].a[  5] =       458.672544350000;     BAS[ATNO][  0].d[  5] =         0.301700567020;
  BAS[ATNO][  0].a[  6] =       178.287252460000;     BAS[ATNO][  0].d[  6] =         0.433793589227;
  BAS[ATNO][  0].a[  7] =        70.612192837000;     BAS[ATNO][  0].d[  7] =         0.230339329251;
  BAS[ATNO][  0].a[  8] =       443.880779500000;     BAS[ATNO][  0].d[  8] =        -0.000183008026;
  BAS[ATNO][  0].a[  9] =       137.558752670000;     BAS[ATNO][  0].d[  9] =        -0.000867392680;
  BAS[ATNO][  0].a[ 10] =        22.268083479000;     BAS[ATNO][  0].d[ 10] =         0.004063749067;
  BAS[ATNO][  0].a[ 11] =         9.521731060600;     BAS[ATNO][  0].d[ 11] =         0.003862762207;
  BAS[ATNO][  0].a[ 12] =        14.874114065000;     BAS[ATNO][  0].d[ 12] =         0.000930472078;
  BAS[ATNO][  0].a[ 13] =         2.464751761200;     BAS[ATNO][  0].d[ 13] =        -0.002886598844;
  BAS[ATNO][  0].a[ 14] =         1.011327223800;     BAS[ATNO][  0].d[ 14] =         0.001553914182;
  BAS[ATNO][  0].a[ 15] =         0.149198520900;     BAS[ATNO][  0].d[ 15] =        -0.000413279708;
  BAS[ATNO][  0].a[ 16] =         0.051441873000;     BAS[ATNO][  0].d[ 16] =         0.000186547954;

  // Basis function   2 L = s
  InitBFNGauss(BAS[ATNO][  1]);
  BAS[ATNO][  1].l  = 0;
  BAS[ATNO][  1].ng = 17;
  BAS[ATNO][  1].a[  0] =    405924.310279999976;     BAS[ATNO][  1].d[  0] =        -0.000076257279;
  BAS[ATNO][  1].a[  1] =     60846.955735000003;     BAS[ATNO][  1].d[  1] =        -0.000591317451;
  BAS[ATNO][  1].a[  2] =     13847.343091999999;     BAS[ATNO][  1].d[  2] =        -0.003075614867;
  BAS[ATNO][  1].a[  3] =      3919.615855100000;     BAS[ATNO][  1].d[  3] =        -0.012510416979;
  BAS[ATNO][  1].a[  4] =      1276.359416700000;     BAS[ATNO][  1].d[  4] =        -0.040792104159;
  BAS[ATNO][  1].a[  5] =       458.672544350000;     BAS[ATNO][  1].d[  5] =        -0.097100546333;
  BAS[ATNO][  1].a[  6] =       178.287252460000;     BAS[ATNO][  1].d[  6] =        -0.139613905687;
  BAS[ATNO][  1].a[  7] =        70.612192837000;     BAS[ATNO][  1].d[  7] =        -0.074133353255;
  BAS[ATNO][  1].a[  8] =       443.880779500000;     BAS[ATNO][  1].d[  8] =        -0.026104652584;
  BAS[ATNO][  1].a[  9] =       137.558752670000;     BAS[ATNO][  1].d[  9] =        -0.123726729424;
  BAS[ATNO][  1].a[ 10] =        22.268083479000;     BAS[ATNO][  1].d[ 10] =         0.579661776080;
  BAS[ATNO][  1].a[ 11] =         9.521731060600;     BAS[ATNO][  1].d[ 11] =         0.550992584498;
  BAS[ATNO][  1].a[ 12] =        14.874114065000;     BAS[ATNO][  1].d[ 12] =        -0.013913330821;
  BAS[ATNO][  1].a[ 13] =         2.464751761200;     BAS[ATNO][  1].d[ 13] =         0.043163256164;
  BAS[ATNO][  1].a[ 14] =         1.011327223800;     BAS[ATNO][  1].d[ 14] =        -0.010148871978;
  BAS[ATNO][  1].a[ 15] =         0.149198520900;     BAS[ATNO][  1].d[ 15] =         0.002192971613;
  BAS[ATNO][  1].a[ 16] =         0.051441873000;     BAS[ATNO][  1].d[ 16] =        -0.000964463601;

  // Basis function   3 L = s
  InitBFNGauss(BAS[ATNO][  2]);
  BAS[ATNO][  2].l  = 0;
  BAS[ATNO][  2].ng = 17;
  BAS[ATNO][  2].a[  0] =    405924.310279999976;     BAS[ATNO][  2].d[  0] =         0.000028672393;
  BAS[ATNO][  2].a[  1] =     60846.955735000003;     BAS[ATNO][  2].d[  1] =         0.000222332696;
  BAS[ATNO][  2].a[  2] =     13847.343091999999;     BAS[ATNO][  2].d[  2] =         0.001156417325;
  BAS[ATNO][  2].a[  3] =      3919.615855100000;     BAS[ATNO][  2].d[  3] =         0.004703860386;
  BAS[ATNO][  2].a[  4] =      1276.359416700000;     BAS[ATNO][  2].d[  4] =         0.015337647268;
  BAS[ATNO][  2].a[  5] =       458.672544350000;     BAS[ATNO][  2].d[  5] =         0.036509367680;
  BAS[ATNO][  2].a[  6] =       178.287252460000;     BAS[ATNO][  2].d[  6] =         0.052494199141;
  BAS[ATNO][  2].a[  7] =        70.612192837000;     BAS[ATNO][  2].d[  7] =         0.027873806622;
  BAS[ATNO][  2].a[  8] =       443.880779500000;     BAS[ATNO][  2].d[  8] =         0.011788902548;
  BAS[ATNO][  2].a[  9] =       137.558752670000;     BAS[ATNO][  2].d[  9] =         0.055875187422;
  BAS[ATNO][  2].a[ 10] =        22.268083479000;     BAS[ATNO][  2].d[ 10] =        -0.261776178279;
  BAS[ATNO][  2].a[ 11] =         9.521731060600;     BAS[ATNO][  2].d[ 11] =        -0.248829125849;
  BAS[ATNO][  2].a[ 12] =        14.874114065000;     BAS[ATNO][  2].d[ 12] =        -0.240569923064;
  BAS[ATNO][  2].a[ 13] =         2.464751761200;     BAS[ATNO][  2].d[ 13] =         0.746318861264;
  BAS[ATNO][  2].a[ 14] =         1.011327223800;     BAS[ATNO][  2].d[ 14] =         0.474609453800;
  BAS[ATNO][  2].a[ 15] =         0.149198520900;     BAS[ATNO][  2].d[ 15] =         0.014777089682;
  BAS[ATNO][  2].a[ 16] =         0.051441873000;     BAS[ATNO][  2].d[ 16] =        -0.004838872241;

  // Basis function   4 L = s
  InitBFNGauss(BAS[ATNO][  3]);
  BAS[ATNO][  3].l  = 0;
  BAS[ATNO][  3].ng = 17;
  BAS[ATNO][  3].a[  0] =    405924.310279999976;     BAS[ATNO][  3].d[  0] =        -0.000006312485;
  BAS[ATNO][  3].a[  1] =     60846.955735000003;     BAS[ATNO][  3].d[  1] =        -0.000048948539;
  BAS[ATNO][  3].a[  2] =     13847.343091999999;     BAS[ATNO][  3].d[  2] =        -0.000254595658;
  BAS[ATNO][  3].a[  3] =      3919.615855100000;     BAS[ATNO][  3].d[  3] =        -0.001035597102;
  BAS[ATNO][  3].a[  4] =      1276.359416700000;     BAS[ATNO][  3].d[  4] =        -0.003376720769;
  BAS[ATNO][  3].a[  5] =       458.672544350000;     BAS[ATNO][  3].d[  5] =        -0.008037865127;
  BAS[ATNO][  3].a[  6] =       178.287252460000;     BAS[ATNO][  3].d[  6] =        -0.011557069308;
  BAS[ATNO][  3].a[  7] =        70.612192837000;     BAS[ATNO][  3].d[  7] =        -0.006136668818;
  BAS[ATNO][  3].a[  8] =       443.880779500000;     BAS[ATNO][  3].d[  8] =        -0.002219919563;
  BAS[ATNO][  3].a[  9] =       137.558752670000;     BAS[ATNO][  3].d[  9] =        -0.010521625836;
  BAS[ATNO][  3].a[ 10] =        22.268083479000;     BAS[ATNO][  3].d[ 10] =         0.049293991265;
  BAS[ATNO][  3].a[ 11] =         9.521731060600;     BAS[ATNO][  3].d[ 11] =         0.046855985280;
  BAS[ATNO][  3].a[ 12] =        14.874114065000;     BAS[ATNO][  3].d[ 12] =         0.073192050750;
  BAS[ATNO][  3].a[ 13] =         2.464751761200;     BAS[ATNO][  3].d[ 13] =        -0.227063330583;
  BAS[ATNO][  3].a[ 14] =         1.011327223800;     BAS[ATNO][  3].d[ 14] =        -0.248595637784;
  BAS[ATNO][  3].a[ 15] =         0.149198520900;     BAS[ATNO][  3].d[ 15] =         0.636843899378;
  BAS[ATNO][  3].a[ 16] =         0.051441873000;     BAS[ATNO][  3].d[ 16] =         0.502374065000;

  // Basis function   5 L = s
  InitBFNGauss(BAS[ATNO][  4]);
  BAS[ATNO][  4].l  = 0;
  BAS[ATNO][  4].ng = 17;
  BAS[ATNO][  4].a[  0] =    405924.310279999976;     BAS[ATNO][  4].d[  0] =        -0.000005380384;
  BAS[ATNO][  4].a[  1] =     60846.955735000003;     BAS[ATNO][  4].d[  1] =        -0.000041720801;
  BAS[ATNO][  4].a[  2] =     13847.343091999999;     BAS[ATNO][  4].d[  2] =        -0.000217002077;
  BAS[ATNO][  4].a[  3] =      3919.615855100000;     BAS[ATNO][  4].d[  3] =        -0.000882680889;
  BAS[ATNO][  4].a[  4] =      1276.359416700000;     BAS[ATNO][  4].d[  4] =        -0.002878114361;
  BAS[ATNO][  4].a[  5] =       458.672544350000;     BAS[ATNO][  4].d[  5] =        -0.006850994392;
  BAS[ATNO][  4].a[  6] =       178.287252460000;     BAS[ATNO][  4].d[  6] =        -0.009850553072;
  BAS[ATNO][  4].a[  7] =        70.612192837000;     BAS[ATNO][  4].d[  7] =        -0.005230528629;
  BAS[ATNO][  4].a[  8] =       443.880779500000;     BAS[ATNO][  4].d[  8] =        -0.002272975261;
  BAS[ATNO][  4].a[  9] =       137.558752670000;     BAS[ATNO][  4].d[  9] =        -0.010773090894;
  BAS[ATNO][  4].a[ 10] =        22.268083479000;     BAS[ATNO][  4].d[ 10] =         0.050472109226;
  BAS[ATNO][  4].a[ 11] =         9.521731060600;     BAS[ATNO][  4].d[ 11] =         0.047975835315;
  BAS[ATNO][  4].a[ 12] =        14.874114065000;     BAS[ATNO][  4].d[ 12] =         0.053152042143;
  BAS[ATNO][  4].a[ 13] =         2.464751761200;     BAS[ATNO][  4].d[ 13] =        -0.164893312766;
  BAS[ATNO][  4].a[ 14] =         1.011327223800;     BAS[ATNO][  4].d[ 14] =        -0.379591583142;
  BAS[ATNO][  4].a[ 15] =         0.149198520900;     BAS[ATNO][  4].d[ 15] =         1.933734232602;
  BAS[ATNO][  4].a[ 16] =         0.051441873000;     BAS[ATNO][  4].d[ 16] =        -1.757016513319;

  // Basis function   6 L = s
  InitBFNGauss(BAS[ATNO][  5]);
  BAS[ATNO][  5].l  = 0;
  BAS[ATNO][  5].ng = 17;
  BAS[ATNO][  5].a[  0] =    405924.310279999976;     BAS[ATNO][  5].d[  0] =        -0.000039496494;
  BAS[ATNO][  5].a[  1] =     60846.955735000003;     BAS[ATNO][  5].d[  1] =        -0.000306265404;
  BAS[ATNO][  5].a[  2] =     13847.343091999999;     BAS[ATNO][  5].d[  2] =        -0.001592975866;
  BAS[ATNO][  5].a[  3] =      3919.615855100000;     BAS[ATNO][  5].d[  3] =        -0.006479612429;
  BAS[ATNO][  5].a[  4] =      1276.359416700000;     BAS[ATNO][  5].d[  4] =        -0.021127755019;
  BAS[ATNO][  5].a[  5] =       458.672544350000;     BAS[ATNO][  5].d[  5] =        -0.050292001294;
  BAS[ATNO][  5].a[  6] =       178.287252460000;     BAS[ATNO][  5].d[  6] =        -0.072311258697;
  BAS[ATNO][  5].a[  7] =        70.612192837000;     BAS[ATNO][  5].d[  7] =        -0.038396433786;
  BAS[ATNO][  5].a[  8] =       443.880779500000;     BAS[ATNO][  5].d[  8] =         0.001744762853;
  BAS[ATNO][  5].a[  9] =       137.558752670000;     BAS[ATNO][  5].d[  9] =         0.008269552745;
  BAS[ATNO][  5].a[ 10] =        22.268083479000;     BAS[ATNO][  5].d[ 10] =        -0.038742991542;
  BAS[ATNO][  5].a[ 11] =         9.521731060600;     BAS[ATNO][  5].d[ 11] =        -0.036826821988;
  BAS[ATNO][  5].a[ 12] =        14.874114065000;     BAS[ATNO][  5].d[ 12] =         0.882875352104;
  BAS[ATNO][  5].a[ 13] =         2.464751761200;     BAS[ATNO][  5].d[ 13] =        -2.738939760336;
  BAS[ATNO][  5].a[ 14] =         1.011327223800;     BAS[ATNO][  5].d[ 14] =         2.808407538164;
  BAS[ATNO][  5].a[ 15] =         0.149198520900;     BAS[ATNO][  5].d[ 15] =        -1.121661918692;
  BAS[ATNO][  5].a[ 16] =         0.051441873000;     BAS[ATNO][  5].d[ 16] =         0.510019058097;

  // Basis function   7 L = p
  InitBFNGauss(BAS[ATNO][  6]);
  BAS[ATNO][  6].l  = 1;
  BAS[ATNO][  6].ng = 13;
  BAS[ATNO][  6].a[  0] =      2205.350853400000;     BAS[ATNO][  6].d[  0] =         0.002618469275;
  BAS[ATNO][  6].a[  1] =       522.353006990000;     BAS[ATNO][  6].d[  1] =         0.021335689286;
  BAS[ATNO][  6].a[  2] =       167.730555420000;     BAS[ATNO][  6].d[  2] =         0.100849447634;
  BAS[ATNO][  6].a[  3] =        62.670045373000;     BAS[ATNO][  6].d[  3] =         0.292755765537;
  BAS[ATNO][  6].a[  4] =        25.109749456000;     BAS[ATNO][  6].d[  4] =         0.474768671603;
  BAS[ATNO][  6].a[  5] =        10.225142681000;     BAS[ATNO][  6].d[  5] =         0.276002916776;
  BAS[ATNO][  6].a[  6] =        40.713442521000;     BAS[ATNO][  6].d[  6] =        -0.000507844023;
  BAS[ATNO][  6].a[  7] =         5.624709069600;     BAS[ATNO][  6].d[  7] =         0.009398559247;
  BAS[ATNO][  6].a[  8] =         2.227994911600;     BAS[ATNO][  6].d[  8] =         0.016164097132;
  BAS[ATNO][  6].a[  9] =         0.833547416900;     BAS[ATNO][  6].d[  9] =        -0.004479130638;
  BAS[ATNO][  6].a[ 10] =         0.162455000000;     BAS[ATNO][  6].d[ 10] =         0.001400788690;
  BAS[ATNO][  6].a[ 11] =         0.047769000000;     BAS[ATNO][  6].d[ 11] =        -0.000926693462;
  BAS[ATNO][  6].a[ 12] =         0.021234841500;     BAS[ATNO][  6].d[ 12] =         0.000435374420;

  // Basis function   8 L = p
  InitBFNGauss(BAS[ATNO][  7]);
  BAS[ATNO][  7].l  = 1;
  BAS[ATNO][  7].ng = 13;
  BAS[ATNO][  7].a[  0] =      2205.350853400000;     BAS[ATNO][  7].d[  0] =        -0.001021560358;
  BAS[ATNO][  7].a[  1] =       522.353006990000;     BAS[ATNO][  7].d[  1] =        -0.008323830484;
  BAS[ATNO][  7].a[  2] =       167.730555420000;     BAS[ATNO][  7].d[  2] =        -0.039345047412;
  BAS[ATNO][  7].a[  3] =        62.670045373000;     BAS[ATNO][  7].d[  3] =        -0.114214700681;
  BAS[ATNO][  7].a[  4] =        25.109749456000;     BAS[ATNO][  7].d[  4] =        -0.185224573187;
  BAS[ATNO][  7].a[  5] =        10.225142681000;     BAS[ATNO][  7].d[  5] =        -0.107678803417;
  BAS[ATNO][  7].a[  6] =        40.713442521000;     BAS[ATNO][  7].d[  6] =        -0.018495658987;
  BAS[ATNO][  7].a[  7] =         5.624709069600;     BAS[ATNO][  7].d[  7] =         0.342295151490;
  BAS[ATNO][  7].a[  8] =         2.227994911600;     BAS[ATNO][  7].d[  8] =         0.588695770400;
  BAS[ATNO][  7].a[  9] =         0.833547416900;     BAS[ATNO][  7].d[  9] =         0.260969269947;
  BAS[ATNO][  7].a[ 10] =         0.162455000000;     BAS[ATNO][  7].d[ 10] =         0.008359507822;
  BAS[ATNO][  7].a[ 11] =         0.047769000000;     BAS[ATNO][  7].d[ 11] =        -0.002179831338;
  BAS[ATNO][  7].a[ 12] =         0.021234841500;     BAS[ATNO][  7].d[ 12] =         0.000912141776;

  // Basis function   9 L = p
  InitBFNGauss(BAS[ATNO][  8]);
  BAS[ATNO][  8].l  = 1;
  BAS[ATNO][  8].ng = 13;
  BAS[ATNO][  8].a[  0] =      2205.350853400000;     BAS[ATNO][  8].d[  0] =         0.000082028730;
  BAS[ATNO][  8].a[  1] =       522.353006990000;     BAS[ATNO][  8].d[  1] =         0.000668382674;
  BAS[ATNO][  8].a[  2] =       167.730555420000;     BAS[ATNO][  8].d[  2] =         0.003159308450;
  BAS[ATNO][  8].a[  3] =        62.670045373000;     BAS[ATNO][  8].d[  3] =         0.009171153493;
  BAS[ATNO][  8].a[  4] =        25.109749456000;     BAS[ATNO][  8].d[  4] =         0.014873067839;
  BAS[ATNO][  8].a[  5] =        10.225142681000;     BAS[ATNO][  8].d[  5] =         0.008646337365;
  BAS[ATNO][  8].a[  6] =        40.713442521000;     BAS[ATNO][  8].d[  6] =         0.001798865325;
  BAS[ATNO][  8].a[  7] =         5.624709069600;     BAS[ATNO][  8].d[  7] =        -0.033291210628;
  BAS[ATNO][  8].a[  8] =         2.227994911600;     BAS[ATNO][  8].d[  8] =        -0.057255835506;
  BAS[ATNO][  8].a[  9] =         0.833547416900;     BAS[ATNO][  8].d[  9] =        -0.016082691637;
  BAS[ATNO][  8].a[ 10] =         0.162455000000;     BAS[ATNO][  8].d[ 10] =         0.238239929101;
  BAS[ATNO][  8].a[ 11] =         0.047769000000;     BAS[ATNO][  8].d[ 11] =         0.122699319818;
  BAS[ATNO][  8].a[ 12] =         0.021234841500;     BAS[ATNO][  8].d[ 12] =         0.784911563746;

  // Basis function  10 L = p
  InitBFNGauss(BAS[ATNO][  9]);
  BAS[ATNO][  9].l  = 1;
  BAS[ATNO][  9].ng = 13;
  BAS[ATNO][  9].a[  0] =      2205.350853400000;     BAS[ATNO][  9].d[  0] =        -0.000105160617;
  BAS[ATNO][  9].a[  1] =       522.353006990000;     BAS[ATNO][  9].d[  1] =        -0.000856864840;
  BAS[ATNO][  9].a[  2] =       167.730555420000;     BAS[ATNO][  9].d[  2] =        -0.004050225173;
  BAS[ATNO][  9].a[  3] =        62.670045373000;     BAS[ATNO][  9].d[  3] =        -0.011757394800;
  BAS[ATNO][  9].a[  4] =        25.109749456000;     BAS[ATNO][  9].d[  4] =        -0.019067234084;
  BAS[ATNO][  9].a[  5] =        10.225142681000;     BAS[ATNO][  9].d[  5] =        -0.011084581896;
  BAS[ATNO][  9].a[  6] =        40.713442521000;     BAS[ATNO][  9].d[  6] =        -0.002362407651;
  BAS[ATNO][  9].a[  7] =         5.624709069600;     BAS[ATNO][  9].d[  7] =         0.043720566280;
  BAS[ATNO][  9].a[  8] =         2.227994911600;     BAS[ATNO][  9].d[  8] =         0.075192746191;
  BAS[ATNO][  9].a[  9] =         0.833547416900;     BAS[ATNO][  9].d[  9] =         0.002719956924;
  BAS[ATNO][  9].a[ 10] =         0.162455000000;     BAS[ATNO][  9].d[ 10] =        -0.158356341905;
  BAS[ATNO][  9].a[ 11] =         0.047769000000;     BAS[ATNO][  9].d[ 11] =        -1.501581248898;
  BAS[ATNO][  9].a[ 12] =         0.021234841500;     BAS[ATNO][  9].d[ 12] =         1.521777102891;

  // Basis function  11 L = p
  InitBFNGauss(BAS[ATNO][ 10]);
  BAS[ATNO][ 10].l  = 1;
  BAS[ATNO][ 10].ng = 13;
  BAS[ATNO][ 10].a[  0] =      2205.350853400000;     BAS[ATNO][ 10].d[  0] =        -0.000209732967;
  BAS[ATNO][ 10].a[  1] =       522.353006990000;     BAS[ATNO][ 10].d[  1] =        -0.001708936386;
  BAS[ATNO][ 10].a[  2] =       167.730555420000;     BAS[ATNO][ 10].d[  2] =        -0.008077793422;
  BAS[ATNO][ 10].a[  3] =        62.670045373000;     BAS[ATNO][ 10].d[  3] =        -0.023449018834;
  BAS[ATNO][ 10].a[  4] =        25.109749456000;     BAS[ATNO][ 10].d[  4] =        -0.038027806223;
  BAS[ATNO][ 10].a[  5] =        10.225142681000;     BAS[ATNO][ 10].d[  5] =        -0.022107156735;
  BAS[ATNO][ 10].a[  6] =        40.713442521000;     BAS[ATNO][ 10].d[  6] =        -0.004551575872;
  BAS[ATNO][ 10].a[  7] =         5.624709069600;     BAS[ATNO][ 10].d[  7] =         0.084235027988;
  BAS[ATNO][ 10].a[  8] =         2.227994911600;     BAS[ATNO][ 10].d[  8] =         0.144871478549;
  BAS[ATNO][ 10].a[  9] =         0.833547416900;     BAS[ATNO][ 10].d[  9] =         0.096748740732;
  BAS[ATNO][ 10].a[ 10] =         0.162455000000;     BAS[ATNO][ 10].d[ 10] =        -1.508275483917;
  BAS[ATNO][ 10].a[ 11] =         0.047769000000;     BAS[ATNO][ 10].d[ 11] =         1.929615551431;
  BAS[ATNO][ 10].a[ 12] =         0.021234841500;     BAS[ATNO][ 10].d[ 12] =        -0.966255026391;

  // Basis function  12 L = p
  InitBFNGauss(BAS[ATNO][ 11]);
  BAS[ATNO][ 11].l  = 1;
  BAS[ATNO][ 11].ng = 13;
  BAS[ATNO][ 11].a[  0] =      2205.350853400000;     BAS[ATNO][ 11].d[  0] =         0.000859596205;
  BAS[ATNO][ 11].a[  1] =       522.353006990000;     BAS[ATNO][ 11].d[  1] =         0.007004121728;
  BAS[ATNO][ 11].a[  2] =       167.730555420000;     BAS[ATNO][ 11].d[  2] =         0.033107053538;
  BAS[ATNO][ 11].a[  3] =        62.670045373000;     BAS[ATNO][ 11].d[  3] =         0.096106434200;
  BAS[ATNO][ 11].a[  4] =        25.109749456000;     BAS[ATNO][ 11].d[  4] =         0.155857986312;
  BAS[ATNO][ 11].a[  5] =        10.225142681000;     BAS[ATNO][ 11].d[  5] =         0.090606776306;
  BAS[ATNO][ 11].a[  6] =        40.713442521000;     BAS[ATNO][ 11].d[  6] =         0.025319337476;
  BAS[ATNO][ 11].a[  7] =         5.624709069600;     BAS[ATNO][ 11].d[  7] =        -0.468579490078;
  BAS[ATNO][ 11].a[  8] =         2.227994911600;     BAS[ATNO][ 11].d[  8] =        -0.805885688723;
  BAS[ATNO][ 11].a[  9] =         0.833547416900;     BAS[ATNO][ 11].d[  9] =         1.600769084057;
  BAS[ATNO][ 11].a[ 10] =         0.162455000000;     BAS[ATNO][ 11].d[ 10] =        -0.882040797475;
  BAS[ATNO][ 11].a[ 11] =         0.047769000000;     BAS[ATNO][ 11].d[ 11] =         0.603275249511;
  BAS[ATNO][ 11].a[ 12] =         0.021234841500;     BAS[ATNO][ 11].d[ 12] =        -0.279581749405;

  // Basis function  13 L = d
  InitBFNGauss(BAS[ATNO][ 12]);
  BAS[ATNO][ 12].l  = 2;
  BAS[ATNO][ 12].ng = 7;
  BAS[ATNO][ 12].a[  0] =        88.554315311000;     BAS[ATNO][ 12].d[  0] =         0.012721231096;
  BAS[ATNO][ 12].a[  1] =        25.721525557000;     BAS[ATNO][ 12].d[  1] =         0.079351217004;
  BAS[ATNO][ 12].a[  2] =         9.127836762400;     BAS[ATNO][ 12].d[  2] =         0.244781549824;
  BAS[ATNO][ 12].a[  3] =         3.431236406400;     BAS[ATNO][ 12].d[  3] =         0.403685071347;
  BAS[ATNO][ 12].a[  4] =         1.230892064500;     BAS[ATNO][ 12].d[  4] =         0.396557037103;
  BAS[ATNO][ 12].a[  5] =         0.390318451100;     BAS[ATNO][ 12].d[  5] =         0.215422233568;
  BAS[ATNO][ 12].a[  6] =         0.124000000000;     BAS[ATNO][ 12].d[  6] =         0.022762215291;

  // Basis function  14 L = d
  InitBFNGauss(BAS[ATNO][ 13]);
  BAS[ATNO][ 13].l  = 2;
  BAS[ATNO][ 13].ng = 7;
  BAS[ATNO][ 13].a[  0] =        88.554315311000;     BAS[ATNO][ 13].d[  0] =        -0.002610337670;
  BAS[ATNO][ 13].a[  1] =        25.721525557000;     BAS[ATNO][ 13].d[  1] =        -0.016282502010;
  BAS[ATNO][ 13].a[  2] =         9.127836762400;     BAS[ATNO][ 13].d[  2] =        -0.050228039687;
  BAS[ATNO][ 13].a[  3] =         3.431236406400;     BAS[ATNO][ 13].d[  3] =        -0.082834305933;
  BAS[ATNO][ 13].a[  4] =         1.230892064500;     BAS[ATNO][ 13].d[  4] =        -0.041528142487;
  BAS[ATNO][ 13].a[  5] =         0.390318451100;     BAS[ATNO][ 13].d[  5] =        -0.165288775124;
  BAS[ATNO][ 13].a[  6] =         0.124000000000;     BAS[ATNO][ 13].d[  6] =         1.077278437873;

  // Basis function  15 L = d
  InitBFNGauss(BAS[ATNO][ 14]);
  BAS[ATNO][ 14].l  = 2;
  BAS[ATNO][ 14].ng = 7;
  BAS[ATNO][ 14].a[  0] =        88.554315311000;     BAS[ATNO][ 14].d[  0] =        -0.006622569020;
  BAS[ATNO][ 14].a[  1] =        25.721525557000;     BAS[ATNO][ 14].d[  1] =        -0.041309595548;
  BAS[ATNO][ 14].a[  2] =         9.127836762400;     BAS[ATNO][ 14].d[  2] =        -0.127431275821;
  BAS[ATNO][ 14].a[  3] =         3.431236406400;     BAS[ATNO][ 14].d[  3] =        -0.210155151434;
  BAS[ATNO][ 14].a[  4] =         1.230892064500;     BAS[ATNO][ 14].d[  4] =        -0.361186375548;
  BAS[ATNO][ 14].a[  5] =         0.390318451100;     BAS[ATNO][ 14].d[  5] =         1.357891411905;
  BAS[ATNO][ 14].a[  6] =         0.124000000000;     BAS[ATNO][ 14].d[  6] =        -0.650988051372;

  // Basis function  16 L = d
  InitBFNGauss(BAS[ATNO][ 15]);
  BAS[ATNO][ 15].l  = 2;
  BAS[ATNO][ 15].ng = 7;
  BAS[ATNO][ 15].a[  0] =        88.554315311000;     BAS[ATNO][ 15].d[  0] =        -0.018974308005;
  BAS[ATNO][ 15].a[  1] =        25.721525557000;     BAS[ATNO][ 15].d[  1] =        -0.118356031784;
  BAS[ATNO][ 15].a[  2] =         9.127836762400;     BAS[ATNO][ 15].d[  2] =        -0.365103069427;
  BAS[ATNO][ 15].a[  3] =         3.431236406400;     BAS[ATNO][ 15].d[  3] =        -0.602115064379;
  BAS[ATNO][ 15].a[  4] =         1.230892064500;     BAS[ATNO][ 15].d[  4] =         1.410741510780;
  BAS[ATNO][ 15].a[  5] =         0.390318451100;     BAS[ATNO][ 15].d[  5] =        -0.802110364447;
  BAS[ATNO][ 15].a[  6] =         0.124000000000;     BAS[ATNO][ 15].d[  6] =         0.265801184915;

  // Basis function  17 L = f
  InitBFNGauss(BAS[ATNO][ 16]);
  BAS[ATNO][ 16].l  = 3;
  BAS[ATNO][ 16].ng = 2;
  BAS[ATNO][ 16].a[  0] =         1.433000000000;     BAS[ATNO][ 16].d[  0] =         0.983872216096;
  BAS[ATNO][ 16].a[  1] =         5.694000000000;     BAS[ATNO][ 16].d[  1] =         0.041606831401;

  // Basis function  18 L = f
  InitBFNGauss(BAS[ATNO][ 17]);
  BAS[ATNO][ 17].l  = 3;
  BAS[ATNO][ 17].ng = 2;
  BAS[ATNO][ 17].a[  0] =         1.433000000000;     BAS[ATNO][ 17].d[  0] =        -0.436197573338;
  BAS[ATNO][ 17].a[  1] =         5.694000000000;     BAS[ATNO][ 17].d[  1] =         1.075426302529;

  // Basis function  19 L = g
  InitBFNGauss(BAS[ATNO][ 18]);
  BAS[ATNO][ 18].l  = 4;
  BAS[ATNO][ 18].ng = 1;
  BAS[ATNO][ 18].a[  0] =         3.617000000000;     BAS[ATNO][ 18].d[  0] =         1.000000000000;

-------
TIMINGS
-------

Total SCF time: 0 days 0 hours 0 min 1 sec 

Total time                  ....       1.214 sec
Sum of individual times     ....       1.126 sec  ( 92.7%)

Fock matrix formation       ....       0.908 sec  ( 74.8%)
  XC integration            ....       0.080 sec  (  8.8% of F)
    Basis function eval.    ....       0.006 sec  (  8.0% of XC)
    Density eval.           ....       0.003 sec  (  4.2% of XC)
    XC-Functional eval.     ....       0.003 sec  (  4.1% of XC)
    XC-Potential eval.      ....       0.005 sec  (  6.4% of XC)
Diagonalization             ....       0.007 sec  (  0.6%)
Density matrix formation    ....       0.002 sec  (  0.2%)
Population analysis         ....       0.002 sec  (  0.2%)
Initial guess               ....       0.078 sec  (  6.4%)
Orbital Transformation      ....       0.000 sec  (  0.0%)
Orbital Orthonormalization  ....       0.000 sec  (  0.0%)
DIIS solution               ....       0.005 sec  (  0.4%)
Grid generation             ....       0.123 sec  ( 10.2%)


           ************************************************************
           *        Program running with 24 parallel MPI-processes    *
           *              working on a common directory               *
           ************************************************************

------------------------------------------------------------------------------
                                ORCA  MP2 
------------------------------------------------------------------------------

Freezing NCore=10 chemical core electrons

-------------
RI-MP2 ENERGY
-------------
Dimension of the basis                    ...   67
Memory devoted to MP2                     ... 5000 MB   
Data format for buffers                   ... DOUBLE
Compression type for matrix containers    ... UNCOMPRESSED
Scaling for aa/bb pairs                   ...   4.000e-01
Scaling for ab pairs                      ...   4.700e-01
Overall scaling of the MP2 energy         ...   1.000e+00
Calculating two index integrals           ... done (    0.003 sec)
Cholesky decomposition of V**-1           ... done (    0.007 sec)

-----------------
RI-TRANSFORMATION (AUX index driven)
-----------------

Dimension of the orbital-basis         ... 67
Dimension of the aux-basis             ... 228
Transformation of internal/external MOs...    5-  14 to   15-  66
Number Format for Storage              ... Double (8 Byte)
Integral mode                          ... Direct

First Phase: integral generation and transformation of MO indices
  Aux angular momentum 0               ... done (    0.000 sec)
  Aux angular momentum 1               ... done (    0.000 sec)
  Aux angular momentum 2               ... done (    0.000 sec)
  Aux angular momentum 3               ... done (    0.001 sec)
  Aux angular momentum 4               ... done (    0.001 sec)
  Aux angular momentum 5               ... done (    0.002 sec)
  Aux angular momentum 6               ... done (    0.002 sec)
Closing buffer VIA ( 0.00 GB; CompressionRatio= 1.00)
  Phase 1 completed in     0.081 sec
Second Phase: sorting and transformation of aux index

IA-Transformation
Memory available                       ... 5000 MB 
Max. # MO pairs treated in a batch     ... 1    
# of internal orbitals                 ... 10
# batches for internal orbitals        ... 1
Closing buffer IAV ( 0.00 GB; CompressionRatio= 1.00)
(ia|v) transformation done in     0.002 sec

  Phase 2 completed in     0.005 sec
RI-Integral transformation completed in     0.087 sec
Opening buffers                              ... done

Starting loop over batches of integrals:

Operator 0  - window                       ... (  5- 14)x( 15- 66)
Operator 0  - Memory available             ...  5000 MB
Operator 0  - Memory needed per MO         ...   0.1 MB
Operator 0  - Number of orbitals per batch ... 1
Operator 0  - Number of batches            ... 1

OPERATOR  0   PASS   0:  MOs     5 ...    5 +    6 ...    6 +    7 ...    7 +    8 ...    8
                            +    9 ...    9 +   10 ...   10 +   11 ...   11 +   12 ...   12
                            +   13 ...   13 +   14 ...   14
  Reading integrals       ... ok
Time spent in pair loops =     0.002 sec
Deleting buffer (Ka|jb)[aa] ...done

-----------------------------------------------
 RI-MP2 CORRELATION ENERGY:     -0.396607591 Eh
-----------------------------------------------


-------
TIMINGS
-------

Total time                :    0.113 sec
Integral trafo            :    0.100 sec ( 88.1%)
I/O of integrals          :    0.000 sec (  0.0%)
K(i,j) Operators          :    0.000 sec (  0.1%)
T(i,j) pair energies      :    0.000 sec (  0.0%)
V-calculation             :    0.003 sec (  3.1%)
V**(-1/2)                 :    0.007 sec (  6.0%)
Gamma(ia|P)               :    0.000 sec (  0.0%)
Gamma-Trafo               :    0.000 sec (  0.0%)
D(virtual)                :    0.000 sec (  0.0%)
D(internal)               :    0.000 sec (  0.0%)
W(virtual)                :    0.000 sec (  0.0%)
W(internal)               :    0.000 sec (  0.0%)
L(virtual)                :    0.000 sec (  0.0%)
L(internal)               :    0.000 sec (  0.0%)
G(D)                      :    0.000 sec (  0.0%)
G(Z)                      :    0.000 sec (  0.0%)
Z-Vector Solution         :    0.000 sec (  0.0%)
Z-Vector Solution         :    0.000 sec (  0.0%)
3-Index Derivative 
+ Separable RIJ part      :    0.000 sec (  0.0%)
2-Index Derivative 
+ Separable RIJ part      :    0.000 sec (  0.0%)
Separable Gradient (X)    :    0.000 sec (  0.0%)


---------------------------------------
MP2 TOTAL ENERGY:    -1779.043408577 Eh
---------------------------------------


-------------------------------------------------------------------------------
                          DFT DISPERSION CORRECTION                            
                                                                               
                              DFTD3 V3.1  Rev 1                                
                          USING Becke-Johnson damping                          
-------------------------------------------------------------------------------
The DSD-BLYP/2013 functional is recognized
Active option DFTDOPT                   ...         4   

molecular C6(AA) [au] = 340.521234 


            DFT-D V3
 parameters
 s6 scaling factor         :     0.5700 
 a1 scaling factor         :     0.0000 
 s8 scaling factor         :     0.0000 
 a2 scaling factor         :     5.4000 
 ad hoc parameters k1-k3   :    16.0000     1.3333    -4.0000 

 Edisp/kcal,au: -0.000000000000  -0.000000000000 
 E6   /kcal   :  -0.000000000 
 E8   /kcal   :  -0.000000000 
 % E8         :          -nan 

-------------------------   ----------------
Dispersion correction            0.000000000
-------------------------   ----------------


-------------------------   --------------------
FINAL SINGLE POINT ENERGY     -1779.043408577467
-------------------------   --------------------


                            ***************************************
                            *     ORCA property calculations      *
                            ***************************************


  WARNING: The energy has been calculated at the MP2 level but the densities
           used in the property calculations are still SCF densities
           MP2 response densities have not been calculated 
           use %mp2 Density relaxed end
           or  %mp2 Density unrelaxed end

                                    ---------------------
                                    Active property flags
                                    ---------------------
   (+) Dipole Moment


------------------------------------------------------------------------------
                       ORCA ELECTRIC PROPERTIES CALCULATION
------------------------------------------------------------------------------

Dipole Moment Calculation                       ... on
Quadrupole Moment Calculation                   ... off
Polarizability Calculation                      ... off
GBWName                                         ... TMD14_Zn.gbw
Electron density file                           ... TMD14_Zn.scfp
The origin for moment calculation is the CENTER OF MASS  = ( 0.000000,  0.000000  0.000000)

-------------
DIPOLE MOMENT
-------------
                                X             Y             Z
Electronic contribution:      0.00000       0.00000       0.00000
Nuclear contribution   :      0.00000       0.00000       0.00000
                        -----------------------------------------
Total Dipole Moment    :      0.00000       0.00000       0.00000
                        -----------------------------------------
Magnitude (a.u.)       :      0.00000
Magnitude (Debye)      :      0.00000



--------------------
Rotational spectrum 
--------------------
 
Rotational constants in cm-1:     0.000000     0.000000     0.000000 
Rotational constants in MHz :     0.000000     0.000000     0.000000 

 Dipole components along the rotational axes: 
x,y,z [a.u.] :     0.000000     0.000000     0.000000 
x,y,z [Debye]:     0.000000     0.000000     0.000000 

 

Timings for individual modules:

Sum of individual times         ...        2.654 sec (=   0.044 min)
GTO integral calculation        ...        0.565 sec (=   0.009 min)  21.3 %
SCF iterations                  ...        1.533 sec (=   0.026 min)  57.8 %
MP2 module                      ...        0.556 sec (=   0.009 min)  21.0 %
                             ****ORCA TERMINATED NORMALLY****
TOTAL RUN TIME: 0 days 0 hours 0 minutes 3 seconds 139 msec
