
                                 *****************
                                 * O   R   C   A *
                                 *****************

           --- An Ab Initio, DFT and Semiempirical electronic structure package ---

                  #######################################################
                  #                        -***-                        #
                  #          Department of theory and spectroscopy      #
                  #               Directorship: Frank Neese             #
                  #        Max Planck Institute fuer Kohlenforschung    #
                  #                Kaiser Wilhelm Platz 1               #
                  #                 D-45470 Muelheim/Ruhr               #
                  #                      Germany                        #
                  #                                                     #
                  #                  All rights reserved                #
                  #                        -***-                        #
                  #######################################################


                         Program Version 4.2.0 -  RELEASE  -


 With contributions from (in alphabetic order):
   Daniel Aravena         : Magnetic Suceptibility
   Michael Atanasov       : Ab Initio Ligand Field Theory (pilot matlab implementation)
   Alexander A. Auer      : GIAO ZORA, VPT2
   Ute Becker             : Parallelization
   Giovanni Bistoni       : ED, misc. LED, open-shell LED, HFLED
   Martin Brehm           : Molecular dynamics
   Dmytro Bykov           : SCF Hessian
   Vijay G. Chilkuri      : MRCI spin determinant printing, contributions to CSF-ICE
   Dipayan Datta          : RHF DLPNO-CCSD density
   Achintya Kumar Dutta   : EOM-CC, STEOM-CC
   Dmitry Ganyushin       : Spin-Orbit,Spin-Spin,Magnetic field MRCI
   Miquel Garcia          : C-PCM Hessian, Gaussian charge scheme
   Yang Guo               : DLPNO-NEVPT2, CIM, IAO-localization
   Andreas Hansen         : Spin unrestricted coupled pair/coupled cluster methods
   Benjamin Helmich-Paris : CASSCF linear response (MC-RPA)
   Lee Huntington         : MR-EOM, pCC
   Robert Izsak           : Overlap fitted RIJCOSX, COSX-SCS-MP3, EOM
   Christian Kollmar      : KDIIS, OOCD, Brueckner-CCSD(T), CCSD density
   Simone Kossmann        : Meta GGA functionals, TD-DFT gradient, OOMP2, MP2 Hessian
   Martin Krupicka        : AUTO-CI
   Lucas Lang             : DCDCAS
   Dagmar Lenk            : GEPOL surface, SMD
   Dimitrios Liakos       : Extrapolation schemes; Compound Job, initial MDCI parallelization
   Dimitrios Manganas     : Further ROCIS development; embedding schemes
   Dimitrios Pantazis     : SARC Basis sets
   Taras Petrenko         : DFT Hessian,TD-DFT gradient, ASA, ECA, R-Raman, ABS, FL, XAS/XES, NRVS
   Peter Pinski           : DLPNO-MP2, DLPNO-MP2 Gradient
   Christoph Reimann      : Effective Core Potentials
   Marius Retegan         : Local ZFS, SOC
   Christoph Riplinger    : Optimizer, TS searches, QM/MM, DLPNO-CCSD(T), (RO)-DLPNO pert. Triples
   Tobias Risthaus        : Range-separated hybrids, TD-DFT gradient, RPA, STAB
   Michael Roemelt        : Original ROCIS implementation
   Masaaki Saitow         : Open-shell DLPNO-CCSD energy and density
   Barbara Sandhoefer     : DKH picture change effects
   Avijit Sen             : IP-ROCIS
   Kantharuban Sivalingam : CASSCF convergence, NEVPT2, FIC-MRCI
   Bernardo de Souza      : ESD, SOC TD-DFT
   Georgi Stoychev        : AutoAux, RI-MP2 NMR
   Willem Van den Heuvel  : Paramagnetic NMR
   Boris Wezisla          : Elementary symmetry handling
   Frank Wennmohs         : Technical directorship


 We gratefully acknowledge several colleagues who have allowed us to
 interface, adapt or use parts of their codes:
   Stefan Grimme, W. Hujo, H. Kruse,             : VdW corrections, initial TS optimization,
                  C. Bannwarth                     DFT functionals, gCP, sTDA/sTD-DF
   Ed Valeev, F. Pavosevic, A. Kumar             : LibInt (2-el integral package), F12 methods
   Garnet Chan, S. Sharma, J. Yang, R. Olivares  : DMRG
   Ulf Ekstrom                                   : XCFun DFT Library
   Mihaly Kallay                                 : mrcc  (arbitrary order and MRCC methods)
   Andreas Klamt, Michael Diedenhofen            : otool_cosmo (COSMO solvation model)
   Jiri Pittner, Ondrej Demel                    : Mk-CCSD
   Frank Weinhold                                : gennbo (NPA and NBO analysis)
   Christopher J. Cramer and Donald G. Truhlar   : smd solvation model
   Lars Goerigk                                  : TD-DFT with DH, B97 family of functionals
   V. Asgeirsson, H. Jonsson                     : NEB implementation
   FAccTs GmbH                                   : IRC, NEB, NEB-TS, Multilevel, MM, QM/MM, CI optimization
   S Lehtola, MJT Oliveira, MAL Marques          : LibXC Library


 Your calculation uses the libint2 library for the computation of 2-el integrals
 For citations please refer to: http://libint.valeyev.net

 Your ORCA version has been built with support for libXC version: 4.2.3
 For citations please refer to: https://tddft.org/programs/libxc/

 This ORCA versions uses:
   CBLAS   interface :  Fast vector & matrix operations
   LAPACKE interface :  Fast linear algebra routines
   SCALAPACK package :  Parallel linear algebra routines


Your calculation utilizes the atom-pairwise dispersion correction
with the Becke-Johnson damping scheme (D3BJ)
Cite in your paper:
S.Grimme, S.Ehrlich, L.Goerigk, J Comput Chem, (2011), 32, 1456–1465 
S.Grimme, J.Antony, S.Ehrlich and H.Krieg, J.Chem.Phys., 132, (2010), 154104 
   

----- Orbital basis set information -----
Your calculation utilizes the basis: def2-TZVPPD
   F. Weigend and R. Ahlrichs, Phys. Chem. Chem. Phys. 7, 3297 (2005).
   D. Rappoport and F. Furche, J. Chem. Phys. 133 134105 (2010).

----- AuxC basis set information -----
Your calculation utilizes the auxiliary basis: def2-TZVPPD/C
   A. Hellweg, C. Hattig, S. Hofener and W. Klopper, Theor. Chem. Acc. 117, 587 (2007).

----- AuxJK basis set information -----
Your calculation utilizes the auxiliary basis: def2/JK
   H-Ba, Hf-Rn: F. Weigend, J. Comput. Chem. 29, 167 (2008).

================================================================================
                                        WARNINGS
                       Please study these warnings very carefully!
================================================================================


WARNING: your system is open-shell and RHF/RKS was chosen
  ===> : WILL SWITCH to UHF/UKS


WARNING: No MP2 level density has been requested!
         To caclulate MP2 level properties use
         %mp2 Density relaxed end
         or
         %mp2 Density unrelaxed end
         Otherwise for double-hybrid DFT only the energy is correct!

WARNING: There are different parametrizations of Gershom Martin's DSD-DFs
         for use with and without D3(BJ)!
         You are using the D3(BJ) parametrized version,
         consistent with the 2013 article (S. Kozuch and J. M. L. Martin, JCC 2013, 34, 2327)

WARNING: The frozen-core approximation is turned on by default for 
         the MP2 part of double-hybrid DFT.

INFO   : the flag for use of LIBINT has been found!

================================================================================
                                       INPUT FILE
================================================================================
NAME = TMD10_Mn.in
|  1> #
|  2> # TMD10_Mn ri-DSD-BLYP/2013-D3BJ/Def2-TZVPPD
|  3> #
|  4> ! rijk ri-dsd-blyp/2013 d3bj def2-tzvppd def2/jk def2-tzvppd/c grid4 nofinalgrid
|  5> 
|  6> *xyz 0 6
|  7> Mn       0.000000    0.000000    0.000000 
|  8> *
|  9> 
| 10> %maxcore 5000
| 11> 
| 12> %pal
| 13> nprocs = 24
| 14> end
| 15> 
| 16> 
| 17>                          ****END OF INPUT****
================================================================================

                       ****************************
                       * Single Point Calculation *
                       ****************************

---------------------------------
CARTESIAN COORDINATES (ANGSTROEM)
---------------------------------
  Mn     0.000000    0.000000    0.000000

----------------------------
CARTESIAN COORDINATES (A.U.)
----------------------------
  NO LB      ZA    FRAG     MASS         X           Y           Z
   0 Mn   25.0000    0    54.940    0.000000    0.000000    0.000000

--------------------------------
INTERNAL COORDINATES (ANGSTROEM)
--------------------------------
 Mn     0   0   0     0.000000000000     0.00000000     0.00000000

---------------------------
INTERNAL COORDINATES (A.U.)
---------------------------
 Mn     0   0   0     0.000000000000     0.00000000     0.00000000

---------------------
BASIS SET INFORMATION
---------------------
There are 1 groups of distinct atoms

 Group   1 Type Mn  : 17s13p7d2f1g contracted to 6s6p4d2f1g pattern {842111/631111/4111/11/1}

Atom   0Mn   basis set group =>   1
---------------------------------
AUXILIARY/C BASIS SET INFORMATION
---------------------------------
There are 1 groups of distinct atoms

 Group   1 Type Mn  : 10s10p9d7f5g3h1i contracted to 10s10p9d7f5g3h1i pattern {1111111111/1111111111/111111111/1111111/11111/111/1}

Atom   0Mn   basis set group =>   1
----------------------------------
AUXILIARY/JK BASIS SET INFORMATION
----------------------------------
There are 1 groups of distinct atoms

 Group   1 Type Mn  : 19s14p12d10f7g3h1i contracted to 16s13p11d9f5g3h1i pattern {4111111111111111/2111111111111/21111111111/211111111/31111/111/1}

Atom   0Mn   basis set group =>   1


           ************************************************************
           *        Program running with 24 parallel MPI-processes    *
           *              working on a common directory               *
           ************************************************************
------------------------------------------------------------------------------
                           ORCA GTO INTEGRAL CALCULATION
                           -- RI-GTO INTEGRALS CHOSEN --
------------------------------------------------------------------------------

                         BASIS SET STATISTICS AND STARTUP INFO

Gaussian basis set:
 # of primitive gaussian shells          ...   40
 # of primitive gaussian functions       ...  114
 # of contracted shells                  ...   19
 # of contracted basis functions         ...   67
 Highest angular momentum                ...    4
 Maximum contraction depth               ...    8
Auxiliary gaussian basis set:
 # of primitive gaussian shells          ...   66
 # of primitive gaussian functions       ...  300
 # of contracted shells                  ...   58
 # of contracted aux-basis functions     ...  264
 Highest angular momentum                ...    6
 Maximum contraction depth               ...    4
Ratio of auxiliary to basis functions    ...  3.94
Integral package used                  ... LIBINT
 One Electron integrals                  ... done
 Ordering auxiliary basis shells         ... done
 Integral threshhold             Thresh  ...  1.000e-10
 Primitive cut-off               TCut    ...  1.000e-11
 Pre-screening matrix                    ... done
 Shell pair data                         ... 
 Ordering of the shell pairs             ... done (   0.000 sec) 190 of 190 pairs
 Determination of significant pairs      ... done (   0.000 sec)
 Creation of shell pair data             ... done (   0.000 sec)
 Storage of shell pair data              ... done (   0.043 sec)
 Shell pair data done in (   0.043 sec)
 Computing two index integrals           ... done
 Cholesky decomposition of the V-matrix  ... done


Timings:
 Total evaluation time                   ...   0.229 sec (  0.004 min)
 One electron matrix time                ...   0.023 sec (  0.000 min) = 10.2%
 Schwartz matrix evaluation time         ...   0.110 sec (  0.002 min) = 48.2%
 Two index repulsion integral time       ...   0.022 sec (  0.000 min) =  9.5%
 Cholesky decomposition of V             ...   0.002 sec (  0.000 min) =  0.7%
 Three index repulsion integral time     ...   0.000 sec (  0.000 min) =  0.0%



           ************************************************************
           *        Program running with 24 parallel MPI-processes    *
           *              working on a common directory               *
           ************************************************************
-------------------------------------------------------------------------------
                                 ORCA SCF
-------------------------------------------------------------------------------

------------
SCF SETTINGS
------------
Hamiltonian:
 Density Functional     Method          .... DFT(GTOs)
 Exchange Functional    Exchange        .... B88
   X-Alpha parameter    XAlpha          ....  0.666667
   Becke's b parameter  XBeta           ....  0.004200
 Correlation Functional Correlation     .... LYP
 LDA part of GGA corr.  LDAOpt          .... VWN-5
 Gradients option       PostSCFGGA      .... off
 Hybrid DFT is turned on
   Fraction HF Exchange ScalHFX         ....  0.710000
   Scaling of DF-GGA-X  ScalDFX         ....  0.290000
   Scaling of DF-GGA-C  ScalDFC         ....  0.540000
   Scaling of DF-LDA-C  ScalLDAC        ....  0.540000
   Perturbative correction              ....  1.000000
   Density functional embedding theory  .... OFF
 RI-approximation to the Coulomb term is turned on
   Number of auxiliary basis functions  .... 264
   RI-JK (J+K treated both via RI)      .... on


General Settings:
 Integral files         IntName         .... TMD10_Mn
 Hartree-Fock type      HFTyp           .... UHF
 Total Charge           Charge          ....    0
 Multiplicity           Mult            ....    6
 Number of Electrons    NEL             ....   25
 Basis Dimension        Dim             ....   67
 Nuclear Repulsion      ENuc            ....      0.0000000000 Eh

Convergence Acceleration:
 DIIS                   CNVDIIS         .... on
   Start iteration      DIISMaxIt       ....    12
   Startup error        DIISStart       ....  0.200000
   # of expansion vecs  DIISMaxEq       ....     5
   Bias factor          DIISBfac        ....   1.050
   Max. coefficient     DIISMaxC        ....  10.000
 Newton-Raphson         CNVNR           .... off
 SOSCF                  CNVSOSCF        .... off
 Level Shifting         CNVShift        .... on
   Level shift para.    LevelShift      ....    0.2500
   Turn off err/grad.   ShiftErr        ....    0.0010
 Zerner damping         CNVZerner       .... off
 Static damping         CNVDamp         .... on
   Fraction old density DampFac         ....    0.7000
   Max. Damping (<1)    DampMax         ....    0.9800
   Min. Damping (>=0)   DampMin         ....    0.0000
   Turn off err/grad.   DampErr         ....    0.1000
 Fernandez-Rico         CNVRico         .... off

SCF Procedure:
 Maximum # iterations   MaxIter         ....   125
 SCF integral mode      SCFMode         .... Direct
   Integral package                     .... LIBINT
 Reset frequency        DirectResetFreq ....    20
 Integral Threshold     Thresh          ....  1.000e-10 Eh
 Primitive CutOff       TCut            ....  1.000e-11 Eh

Convergence Tolerance:
 Convergence Check Mode ConvCheckMode   .... Total+1el-Energy
 Convergence forced     ConvForced      .... 0
 Energy Change          TolE            ....  1.000e-06 Eh
 1-El. energy change                    ....  1.000e-03 Eh
 DIIS Error             TolErr          ....  1.000e-06


Diagonalization of the overlap matrix:
Smallest eigenvalue                        ... 4.029e-02
Time for diagonalization                   ...    0.002 sec
Threshold for overlap eigenvalues          ... 1.000e-08
Number of eigenvalues below threshold      ... 0
Time for construction of square roots      ...    0.001 sec
Total time needed                          ...    0.003 sec

-------------------
DFT GRID GENERATION
-------------------

General Integration Accuracy     IntAcc      ...  4.670
Radial Grid Type                 RadialGrid  ... Gauss-Chebyshev
Angular Grid (max. acc.)         AngularGrid ... Lebedev-302
Angular grid pruning method      GridPruning ... 3 (G Style)
Weight generation scheme         WeightScheme... Becke
Basis function cutoff            BFCut       ...    1.0000e-10
Integration weight cutoff        WCut        ...    1.0000e-14
Grids for H and He will be reduced by one unit

# of grid points (after initial pruning)     ...   9664 (   0.0 sec)
# of grid points (after weights+screening)   ...   9664 (   0.0 sec)
Grid point division into batches done        ...    0.1 sec
Reduced shell lists constructed in    0.1 sec

Total number of grid points                  ...     9664
Total number of batches                      ...      152
Average number of points per batch           ...       63
Average number of grid points per atom       ...     9664
Average number of shells per batch           ...     3.62 (19.08%)
Average number of basis functions per batch  ...    10.62 (15.86%)
Average number of large shells per batch     ...     2.00 (55.17%)
Average number of large basis fcns per batch ...     4.50 (42.35%)
Average number of aux-shells per batch       ...     3.62 ( 6.25%)
Average number of aux functions per batch    ...    10.62 ( 4.02%)
Maximum spatial batch extension              ...  27.95, 22.27, 22.27 au
Average spatial batch extension              ...   0.96,  0.88,  0.86 au

Time for grid setup =    0.119 sec

------------------------------
INITIAL GUESS: MODEL POTENTIAL
------------------------------
Loading Hartree-Fock densities                     ... done
Calculating cut-offs                               ... done
Setting up the integral package                    ... done
Initializing the effective Hamiltonian             ... done
Starting the Coulomb interaction                   ... done (   0.0 sec)
Reading the grid                                   ... done
Mapping shells                                     ... done
Starting the XC term evaluation                    ... done (   0.0 sec)
  promolecular density results
     # of electrons  =     24.999991684
     EX              =    -50.816566477
     EC              =     -0.154985018
     EX+EC           =    -50.971551495
Transforming the Hamiltonian                       ... done (   0.0 sec)
Diagonalizing the Hamiltonian                      ... done (   0.0 sec)
Back transforming the eigenvectors                 ... done (   0.0 sec)
Now organizing SCF variables                       ... done
                      ------------------
                      INITIAL GUESS DONE (   0.2 sec)
                      ------------------
--------------
SCF ITERATIONS
--------------
ITER       Energy         Delta-E        Max-DP      RMS-DP      [F,P]     Damp
  0  -1150.3412095367   0.000000000000 0.02522932  0.00050830  0.0904304 0.7000
  1  -1150.2962320199   0.044977516803 0.03413840  0.00055003  0.0667093 0.7000
                               ***Turning on DIIS***
  2  -1150.3112022381  -0.014970218275 0.10910572  0.00160978  0.0337030 0.0000
  3  -1150.3578800099  -0.046677771728 0.01074307  0.00036172  0.0301181 0.0000
  4  -1150.3593226898  -0.001442679890 0.01362856  0.00023936  0.0099402 0.0000
  5  -1150.3595989701  -0.000276280314 0.01227872  0.00019312  0.0018357 0.0000
  6  -1150.3596918164  -0.000092846334 0.00829726  0.00013389  0.0010923 0.0000
  7  -1150.3597349164  -0.000043099954 0.00777291  0.00013287  0.0005570 0.0000
  8  -1150.3597614638  -0.000026547436 0.00092572  0.00002623  0.0005213 0.0000
  9  -1150.3597698165  -0.000008352694 0.00032687  0.00000914  0.0006116 0.0000
 10  -1150.3597672443   0.000002572173 0.00033940  0.00001015  0.0005868 0.0000
 11  -1150.3597643719   0.000002872385 0.00038890  0.00001221  0.0005503 0.0000
 12  -1150.3597609614   0.000003410491 0.00134782  0.00003970  0.0005012 0.0000
 13  -1150.3597518396   0.000009121888 0.00221491  0.00006608  0.0003499 0.0000
 14  -1150.3597444069   0.000007432670 0.00081599  0.00002400  0.0000978 0.0000
 15  -1150.3597442316   0.000000175246 0.00008582  0.00000357  0.0000635 0.0000
 16  -1150.3597443589  -0.000000127274 0.00004632  0.00000254  0.0000438 0.0000
                 **** Energy Check signals convergence ****

               *****************************************************
               *                     SUCCESS                       *
               *           SCF CONVERGED AFTER  17 CYCLES          *
               *****************************************************


----------------
TOTAL SCF ENERGY
----------------

Total Energy       :        -1150.35974439 Eh          -31302.88005 eV

Components:
Nuclear Repulsion  :            0.00000000 Eh               0.00000 eV
Electronic Energy  :        -1150.35974439 Eh          -31302.88005 eV
One Electron Energy:        -1589.31092939 Eh          -43247.34904 eV
Two Electron Energy:          438.95118500 Eh           11944.46899 eV

Virial components:
Potential Energy   :        -2299.73704171 Eh          -62579.02636 eV
Kinetic Energy     :         1149.37729732 Eh           31276.14631 eV
Virial Ratio       :            2.00085476


DFT components:
N(Alpha)           :       15.000000459238 electrons
N(Beta)            :       10.000000460874 electrons
N(Total)           :       25.000000920112 electrons
E(X)               :      -14.844998941981 Eh       
E(C)               :       -0.588162300024 Eh       
E(XC)              :      -15.433161242005 Eh       
DFET-embed. en.    :        0.000000000000 Eh       

---------------
SCF CONVERGENCE
---------------

  Last Energy change         ...   -3.2246e-08  Tolerance :   1.0000e-06
  Last MAX-Density change    ...    2.0002e-05  Tolerance :   1.0000e-05
  Last RMS-Density change    ...    8.7692e-07  Tolerance :   1.0000e-06
  Last DIIS Error            ...    1.7146e-05  Tolerance :   1.0000e-06

             **** THE GBW FILE WAS UPDATED (TMD10_Mn.gbw) ****
             **** DENSITY FILE WAS UPDATED (TMD10_Mn.scfp) ****
             **** ENERGY FILE WAS UPDATED (TMD10_Mn.en.tmp) ****
----------------------
UHF SPIN CONTAMINATION
----------------------

Warning: in a DFT calculation there is little theoretical justification to 
         calculate <S**2> as in Hartree-Fock theory. We will do it anyways
         but you should keep in mind that the values have only limited relevance

Expectation value of <S**2>     :     8.760697
Ideal value S*(S+1) for S=2.5   :     8.750000
Deviation                       :     0.010697

             **** THE GBW FILE WAS UPDATED (TMD10_Mn.gbw) ****
             **** DENSITY FILE WAS UPDATED (TMD10_Mn.scfp) ****
----------------
ORBITAL ENERGIES
----------------
                 SPIN UP ORBITALS
  NO   OCC          E(Eh)            E(eV) 
   0   1.0000    -238.578898     -6492.0619 
   1   1.0000     -28.333815      -771.0023 
   2   1.0000     -24.188030      -658.1898 
   3   1.0000     -24.167686      -657.6362 
   4   1.0000     -24.160653      -657.4448 
   5   1.0000      -3.549661       -96.5912 
   6   1.0000      -2.352792       -64.0227 
   7   1.0000      -2.304349       -62.7045 
   8   1.0000      -2.287628       -62.2495 
   9   1.0000      -0.368190       -10.0190 
  10   1.0000      -0.364076        -9.9070 
  11   1.0000      -0.357543        -9.7292 
  12   1.0000      -0.338654        -9.2153 
  13   1.0000      -0.300171        -8.1681 
  14   1.0000      -0.209510        -5.7011 
  15   0.0000       0.012305         0.3348 
  16   0.0000       0.016686         0.4541 
  17   0.0000       0.018265         0.4970 
  18   0.0000       0.139282         3.7901 
  19   0.0000       0.145156         3.9499 
  20   0.0000       0.147413         4.0113 
  21   0.0000       0.165201         4.4954 
  22   0.0000       0.227151         6.1811 
  23   0.0000       0.227916         6.2019 
  24   0.0000       0.229288         6.2392 
  25   0.0000       0.232930         6.3383 
  26   0.0000       0.236106         6.4248 
  27   0.0000       0.583670        15.8825 
  28   0.0000       0.596359        16.2278 
  29   0.0000       0.601086        16.3564 
  30   0.0000       0.968067        26.3425 
  31   0.0000       0.970172        26.3997 
  32   0.0000       0.973554        26.4918 
  33   0.0000       0.982776        26.7427 
  34   0.0000       0.998390        27.1676 
  35   0.0000       2.178519        59.2805 
  36   0.0000       2.179440        59.3056 
  37   0.0000       2.182266        59.3825 
  38   0.0000       2.184874        59.4534 
  39   0.0000       2.200221        59.8711 
  40   0.0000       2.213501        60.2324 
  41   0.0000       2.215159        60.2775 
  42   0.0000       2.389521        65.0222 
  43   0.0000       2.417662        65.7879 
  44   0.0000       2.428454        66.0816 
  45   0.0000       2.554955        69.5239 
  46   0.0000       3.532009        96.1109 
  47   0.0000       3.534947        96.1908 
  48   0.0000       3.540389        96.3389 
  49   0.0000       3.555736        96.7565 
  50   0.0000       3.583170        97.5030 
  51   0.0000       7.403867       201.4695 
  52   0.0000       7.404088       201.4755 
  53   0.0000       7.405459       201.5128 
  54   0.0000       7.405908       201.5250 
  55   0.0000       7.425481       202.0576 
  56   0.0000       7.430926       202.2058 
  57   0.0000       7.436775       202.3649 
  58   0.0000       7.456281       202.8957 
  59   0.0000       7.457569       202.9308 
  60   0.0000       8.324125       226.5110 
  61   0.0000       8.325370       226.5448 
  62   0.0000       8.329337       226.6528 
  63   0.0000       8.332902       226.7498 
  64   0.0000       8.359777       227.4811 
  65   0.0000       8.382066       228.0876 
  66   0.0000       8.386353       228.2043 

                 SPIN DOWN ORBITALS
  NO   OCC          E(Eh)            E(eV) 
   0   1.0000    -238.575864     -6491.9793 
   1   1.0000     -28.247000      -768.6400 
   2   1.0000     -24.093702      -655.6230 
   3   1.0000     -24.090484      -655.5354 
   4   1.0000     -24.089375      -655.5052 
   5   1.0000      -3.288077       -89.4731 
   6   1.0000      -2.023010       -55.0489 
   7   1.0000      -2.015980       -54.8576 
   8   1.0000      -1.994268       -54.2668 
   9   1.0000      -0.181808        -4.9472 
  10   0.0000      -0.016767        -0.4562 
  11   0.0000       0.036114         0.9827 
  12   0.0000       0.036364         0.9895 
  13   0.0000       0.036594         0.9958 
  14   0.0000       0.175520         4.7761 
  15   0.0000       0.175879         4.7859 
  16   0.0000       0.176453         4.8015 
  17   0.0000       0.176514         4.8032 
  18   0.0000       0.177918         4.8414 
  19   0.0000       0.182019         4.9530 
  20   0.0000       0.191189         5.2025 
  21   0.0000       0.215795         5.8721 
  22   0.0000       0.251826         6.8525 
  23   0.0000       0.343843         9.3564 
  24   0.0000       0.347701         9.4614 
  25   0.0000       0.354495         9.6463 
  26   0.0000       0.373796        10.1715 
  27   0.0000       0.632308        17.2060 
  28   0.0000       0.637830        17.3562 
  29   0.0000       0.639762        17.4088 
  30   0.0000       1.041637        28.3444 
  31   0.0000       1.089433        29.6450 
  32   0.0000       1.092690        29.7336 
  33   0.0000       1.098312        29.8866 
  34   0.0000       1.113564        30.3016 
  35   0.0000       2.291419        62.3527 
  36   0.0000       2.295330        62.4591 
  37   0.0000       2.295704        62.4693 
  38   0.0000       2.305117        62.7254 
  39   0.0000       2.311346        62.8949 
  40   0.0000       2.316969        63.0479 
  41   0.0000       2.321032        63.1585 
  42   0.0000       2.489300        67.7373 
  43   0.0000       2.500750        68.0489 
  44   0.0000       2.504773        68.1583 
  45   0.0000       2.662845        72.4597 
  46   0.0000       3.647283        99.2476 
  47   0.0000       3.678798       100.1052 
  48   0.0000       3.683352       100.2291 
  49   0.0000       3.690399       100.4209 
  50   0.0000       3.710211       100.9600 
  51   0.0000       7.523293       204.7192 
  52   0.0000       7.523297       204.7193 
  53   0.0000       7.528541       204.8620 
  54   0.0000       7.528749       204.8677 
  55   0.0000       7.538122       205.1227 
  56   0.0000       7.539873       205.1704 
  57   0.0000       7.540480       205.1869 
  58   0.0000       7.542959       205.2544 
  59   0.0000       7.544708       205.3019 
  60   0.0000       8.521285       231.8760 
  61   0.0000       8.523808       231.9446 
  62   0.0000       8.524688       231.9686 
  63   0.0000       8.536451       232.2886 
  64   0.0000       8.547015       232.5761 
  65   0.0000       8.554948       232.7920 
  66   0.0000       8.560508       232.9433 

                    ********************************
                    * MULLIKEN POPULATION ANALYSIS *
                    ********************************

--------------------------------------------
MULLIKEN ATOMIC CHARGES AND SPIN POPULATIONS
--------------------------------------------
   0 Mn:   -0.000000    5.000000
Sum of atomic charges         :   -0.0000000
Sum of atomic spin populations:    5.0000000

-----------------------------------------------------
MULLIKEN REDUCED ORBITAL CHARGES AND SPIN POPULATIONS
-----------------------------------------------------
CHARGE
  0 Mns       :     6.999708  s :     6.999708
      pz      :     3.999869  p :    11.999640
      px      :     3.999816
      py      :     3.999955
      dz2     :     1.532523  d :     6.000225
      dxz     :     1.024432
      dyz     :     1.048632
      dx2y2   :     1.389763
      dxy     :     1.004876
      f0      :     0.000065  f :     0.000360
      f+1     :     0.000102
      f-1     :     0.000020
      f+2     :     0.000060
      f-2     :     0.000011
      f+3     :     0.000069
      f-3     :     0.000032
      g0      :     0.000008  g :     0.000066
      g+1     :     0.000001
      g-1     :     0.000008
      g+2     :     0.000010
      g-2     :     0.000001
      g+3     :     0.000005
      g-3     :     0.000003
      g+4     :     0.000016
      g-4     :     0.000014

SPIN
  0 Mns       :     0.999631  s :     0.999631
      pz      :     0.000089  p :     0.000167
      px      :     0.000082
      py      :    -0.000005
      dz2     :     0.467486  d :     4.000318
      dxz     :     0.975560
      dyz     :     0.951450
      dx2y2   :     0.610710
      dxy     :     0.995112
      f0      :    -0.000047  f :    -0.000167
      f+1     :    -0.000086
      f-1     :     0.000006
      f+2     :    -0.000042
      f-2     :    -0.000008
      f+3     :     0.000009
      f-3     :     0.000001
      g0      :     0.000004  g :     0.000051
      g+1     :     0.000000
      g-1     :     0.000007
      g+2     :     0.000004
      g-2     :     0.000001
      g+3     :     0.000005
      g-3     :     0.000002
      g+4     :     0.000014
      g-4     :     0.000014


                     *******************************
                     * LOEWDIN POPULATION ANALYSIS *
                     *******************************

-------------------------------------------
LOEWDIN ATOMIC CHARGES AND SPIN POPULATIONS
-------------------------------------------
   0 Mn:   -0.000000    5.000000

----------------------------------------------------
LOEWDIN REDUCED ORBITAL CHARGES AND SPIN POPULATIONS
----------------------------------------------------
CHARGE
  0 Mns       :     6.999708  s :     6.999708
      pz      :     3.999869  p :    11.999640
      px      :     3.999816
      py      :     3.999955
      dz2     :     1.532523  d :     6.000225
      dxz     :     1.024432
      dyz     :     1.048632
      dx2y2   :     1.389763
      dxy     :     1.004876
      f0      :     0.000065  f :     0.000360
      f+1     :     0.000102
      f-1     :     0.000020
      f+2     :     0.000060
      f-2     :     0.000011
      f+3     :     0.000069
      f-3     :     0.000032
      g0      :     0.000008  g :     0.000066
      g+1     :     0.000001
      g-1     :     0.000008
      g+2     :     0.000010
      g-2     :     0.000001
      g+3     :     0.000005
      g-3     :     0.000003
      g+4     :     0.000016
      g-4     :     0.000014

SPIN
  0 Mns       :     0.999631  s :     0.999631
      pz      :     0.000089  p :     0.000167
      px      :     0.000082
      py      :    -0.000005
      dz2     :     0.467486  d :     4.000318
      dxz     :     0.975560
      dyz     :     0.951450
      dx2y2   :     0.610710
      dxy     :     0.995112
      f0      :    -0.000047  f :    -0.000167
      f+1     :    -0.000086
      f-1     :     0.000006
      f+2     :    -0.000042
      f-2     :    -0.000008
      f+3     :     0.000009
      f-3     :     0.000001
      g0      :     0.000004  g :     0.000051
      g+1     :     0.000000
      g-1     :     0.000007
      g+2     :     0.000004
      g-2     :     0.000001
      g+3     :     0.000005
      g-3     :     0.000002
      g+4     :     0.000014
      g-4     :     0.000014


                      *****************************
                      * MAYER POPULATION ANALYSIS *
                      *****************************

  NA   - Mulliken gross atomic population
  ZA   - Total nuclear charge
  QA   - Mulliken gross atomic charge
  VA   - Mayer's total valence
  BVA  - Mayer's bonded valence
  FA   - Mayer's free valence

  ATOM       NA         ZA         QA         VA         BVA        FA
  0 Mn    25.0000    25.0000    -0.0000     5.0214     0.0000     5.0214

  Mayer bond orders larger than 0.100000


-------
TIMINGS
-------

Total SCF time: 0 days 0 hours 0 min 2 sec 

Total time                  ....       2.195 sec
Sum of individual times     ....       2.102 sec  ( 95.8%)

Fock matrix formation       ....       1.841 sec  ( 83.9%)
  XC integration            ....       0.138 sec  (  7.5% of F)
    Basis function eval.    ....       0.012 sec  (  8.5% of XC)
    Density eval.           ....       0.011 sec  (  7.6% of XC)
    XC-Functional eval.     ....       0.010 sec  (  7.0% of XC)
    XC-Potential eval.      ....       0.018 sec  ( 13.0% of XC)
Diagonalization             ....       0.025 sec  (  1.1%)
Density matrix formation    ....       0.006 sec  (  0.3%)
Population analysis         ....       0.004 sec  (  0.2%)
Initial guess               ....       0.096 sec  (  4.4%)
Orbital Transformation      ....       0.000 sec  (  0.0%)
Orbital Orthonormalization  ....       0.000 sec  (  0.0%)
DIIS solution               ....       0.012 sec  (  0.6%)
Grid generation             ....       0.119 sec  (  5.4%)


           ************************************************************
           *        Program running with 24 parallel MPI-processes    *
           *              working on a common directory               *
           ************************************************************

------------------------------------------------------------------------------
                                ORCA  MP2 
------------------------------------------------------------------------------

Freezing NCore=10 chemical core electrons

-------------
RI-MP2 ENERGY
-------------
Dimension of the basis                    ...   67
Memory devoted to MP2                     ... 5000 MB   
Data format for buffers                   ... DOUBLE
Compression type for matrix containers    ... UNCOMPRESSED
Scaling for aa/bb pairs                   ...   4.000e-01
Scaling for ab pairs                      ...   4.700e-01
Overall scaling of the MP2 energy         ...   1.000e+00
Calculating two index integrals           ... done (    0.003 sec)
Cholesky decomposition of V**-1           ... done (    0.005 sec)

-----------------
RI-TRANSFORMATION (AUX index driven)
-----------------

Dimension of the orbital-basis         ... 67
Dimension of the aux-basis             ... 225
Transformation of internal/external MOs...    5-  14 to   15-  66
Number Format for Storage              ... Double (8 Byte)
Integral mode                          ... Direct

First Phase: integral generation and transformation of MO indices
  Aux angular momentum 0               ... done (    0.000 sec)
  Aux angular momentum 1               ... done (    0.000 sec)
  Aux angular momentum 2               ... done (    0.000 sec)
  Aux angular momentum 3               ... done (    0.001 sec)
  Aux angular momentum 4               ... done (    0.001 sec)
  Aux angular momentum 5               ... done (    0.002 sec)
  Aux angular momentum 6               ... done (    0.002 sec)
Closing buffer VIA ( 0.00 GB; CompressionRatio= 1.00)
  Phase 1 completed in     0.076 sec
Second Phase: sorting and transformation of aux index

IA-Transformation
Memory available                       ... 5000 MB 
Max. # MO pairs treated in a batch     ... 1    
# of internal orbitals                 ... 10
# batches for internal orbitals        ... 1
Closing buffer IAV ( 0.00 GB; CompressionRatio= 1.00)
(ia|v) transformation done in     0.002 sec

  Phase 2 completed in     0.004 sec
RI-Integral transformation completed in     0.082 sec

-----------------
RI-TRANSFORMATION (AUX index driven)
-----------------

Dimension of the orbital-basis         ... 67
Dimension of the aux-basis             ... 225
Transformation of internal/external MOs...    5-   9 to   10-  66
Number Format for Storage              ... Double (8 Byte)
Integral mode                          ... Direct

First Phase: integral generation and transformation of MO indices
  Aux angular momentum 0               ... done (    0.000 sec)
  Aux angular momentum 1               ... done (    0.000 sec)
  Aux angular momentum 2               ... done (    0.000 sec)
  Aux angular momentum 3               ... done (    0.001 sec)
  Aux angular momentum 4               ... done (    0.001 sec)
  Aux angular momentum 5               ... done (    0.002 sec)
  Aux angular momentum 6               ... done (    0.002 sec)
Closing buffer VIA ( 0.00 GB; CompressionRatio= 0.99)
  Phase 1 completed in     0.076 sec
Second Phase: sorting and transformation of aux index

IA-Transformation
Memory available                       ... 5000 MB 
Max. # MO pairs treated in a batch     ... 1    
# of internal orbitals                 ... 5
# batches for internal orbitals        ... 1
Closing buffer IAV ( 0.00 GB; CompressionRatio= 1.00)
(ia|v) transformation done in     0.002 sec

  Phase 2 completed in     0.004 sec
RI-Integral transformation completed in     0.081 sec
Opening buffers                              ... done

Starting loop over batches of integrals:

Operator 0  - window                       ... (  5- 14)x( 15- 66)
Operator 0  - Memory available             ...  5000 MB
Operator 0  - Memory needed per MO         ...   0.1 MB
Operator 0  - Number of orbitals per batch ... 1
Operator 0  - Number of batches            ... 1

OPERATOR  0   PASS   0:  MOs     5 ...    5 +    6 ...    6 +    7 ...    7 +    8 ...    8
                            +    9 ...    9 +   10 ...   10 +   11 ...   11 +   12 ...   12
                            +   13 ...   13 +   14 ...   14
  Reading integrals       ... ok

Operator 1  - window                       ... (  5-  9)x( 10- 66)
Operator 1  - Memory available             ...  5000 MB
Operator 1  - Memory needed per MO         ...   0.1 MB
Operator 1  - Number of orbitals per batch ... 1
Operator 1  - Number of batches            ... 1

OPERATOR  1   PASS   0:  MOs     5 ...    5 +    6 ...    6 +    7 ...    7 +    8 ...    8
                            +    9 ...    9
  Reading integrals       ... ok
Time spent in pair loops =     0.002 sec
Deleting buffer (Ka|jb)[aa] ...done
Deleting buffer (Ka|jb)[ab] ...done
Deleting buffer (Ka|jb)[ba] ...done
Deleting buffer (Ka|jb)[bb] ...done

Spin-scaled correlation energy components}
 E2 and T2 for alpha/alpha pairs :     -0.064011525 Eh      0.000000000
 E2 and T2 for beta/beta   pairs :     -0.016703732 Eh      0.000000000
 E2 and T2 for alpha/beta  pairs :     -0.161359194 Eh      0.000000000


-----------------------------------------------
 RI-MP2 CORRELATION ENERGY:     -0.242074450 Eh
-----------------------------------------------


-------
TIMINGS
-------

Total time                :    0.206 sec
Integral trafo            :    0.195 sec ( 94.4%)
I/O of integrals          :    0.000 sec (  0.1%)
K(i,j) Operators          :    0.000 sec (  0.2%)
T(i,j) pair energies      :    0.000 sec (  0.0%)
V-calculation             :    0.003 sec (  1.6%)
V**(-1/2)                 :    0.005 sec (  2.4%)
Gamma(ia|P)               :    0.000 sec (  0.0%)
Gamma-Trafo               :    0.000 sec (  0.0%)
D(virtual)                :    0.000 sec (  0.0%)
D(internal)               :    0.000 sec (  0.0%)
W(virtual)                :    0.000 sec (  0.0%)
W(internal)               :    0.000 sec (  0.0%)
L(virtual)                :    0.000 sec (  0.0%)
L(internal)               :    0.000 sec (  0.0%)
G(D)                      :    0.000 sec (  0.0%)
G(Z)                      :    0.000 sec (  0.0%)
Z-Vector Solution         :    0.000 sec (  0.0%)
Z-Vector Solution         :    0.000 sec (  0.0%)
3-Index Derivative 
+ Separable RIJ part      :    0.000 sec (  0.0%)
2-Index Derivative 
+ Separable RIJ part      :    0.000 sec (  0.0%)
Separable Gradient (X)    :    0.000 sec (  0.0%)


---------------------------------------
MP2 TOTAL ENERGY:    -1150.601818842 Eh
---------------------------------------


-------------------------------------------------------------------------------
                          DFT DISPERSION CORRECTION                            
                                                                               
                              DFTD3 V3.1  Rev 1                                
                          USING Becke-Johnson damping                          
-------------------------------------------------------------------------------
The DSD-BLYP/2013 functional is recognized
Active option DFTDOPT                   ...         4   

molecular C6(AA) [au] = 802.732267 


            DFT-D V3
 parameters
 s6 scaling factor         :     0.5700 
 a1 scaling factor         :     0.0000 
 s8 scaling factor         :     0.0000 
 a2 scaling factor         :     5.4000 
 ad hoc parameters k1-k3   :    16.0000     1.3333    -4.0000 

 Edisp/kcal,au: -0.000000000000  -0.000000000000 
 E6   /kcal   :  -0.000000000 
 E8   /kcal   :  -0.000000000 
 % E8         :          -nan 

-------------------------   ----------------
Dispersion correction            0.000000000
-------------------------   ----------------


-------------------------   --------------------
FINAL SINGLE POINT ENERGY     -1150.601818841615
-------------------------   --------------------


                            ***************************************
                            *     ORCA property calculations      *
                            ***************************************


  WARNING: The energy has been calculated at the MP2 level but the densities
           used in the property calculations are still SCF densities
           MP2 response densities have not been calculated 
           use %mp2 Density relaxed end
           or  %mp2 Density unrelaxed end

                                    ---------------------
                                    Active property flags
                                    ---------------------
   (+) Dipole Moment


------------------------------------------------------------------------------
                       ORCA ELECTRIC PROPERTIES CALCULATION
------------------------------------------------------------------------------

Dipole Moment Calculation                       ... on
Quadrupole Moment Calculation                   ... off
Polarizability Calculation                      ... off
GBWName                                         ... TMD10_Mn.gbw
Electron density file                           ... TMD10_Mn.scfp
The origin for moment calculation is the CENTER OF MASS  = ( 0.000000,  0.000000  0.000000)

-------------
DIPOLE MOMENT
-------------
                                X             Y             Z
Electronic contribution:      0.00000      -0.00000      -0.00000
Nuclear contribution   :      0.00000       0.00000       0.00000
                        -----------------------------------------
Total Dipole Moment    :      0.00000      -0.00000      -0.00000
                        -----------------------------------------
Magnitude (a.u.)       :      0.00000
Magnitude (Debye)      :      0.00000



--------------------
Rotational spectrum 
--------------------
 
Rotational constants in cm-1:     0.000000     0.000000     0.000000 
Rotational constants in MHz :     0.000000     0.000000     0.000000 

 Dipole components along the rotational axes: 
x,y,z [a.u.] :     0.000000    -0.000000    -0.000000 
x,y,z [Debye]:     0.000000    -0.000000    -0.000000 

 

Timings for individual modules:

Sum of individual times         ...        3.749 sec (=   0.062 min)
GTO integral calculation        ...        0.584 sec (=   0.010 min)  15.6 %
SCF iterations                  ...        2.511 sec (=   0.042 min)  67.0 %
MP2 module                      ...        0.654 sec (=   0.011 min)  17.4 %
                             ****ORCA TERMINATED NORMALLY****
TOTAL RUN TIME: 0 days 0 hours 0 minutes 4 seconds 260 msec
