
                                 *****************
                                 * O   R   C   A *
                                 *****************

           --- An Ab Initio, DFT and Semiempirical electronic structure package ---

                  #######################################################
                  #                        -***-                        #
                  #          Department of theory and spectroscopy      #
                  #               Directorship: Frank Neese             #
                  #        Max Planck Institute fuer Kohlenforschung    #
                  #                Kaiser Wilhelm Platz 1               #
                  #                 D-45470 Muelheim/Ruhr               #
                  #                      Germany                        #
                  #                                                     #
                  #                  All rights reserved                #
                  #                        -***-                        #
                  #######################################################


                         Program Version 4.2.0 -  RELEASE  -


 With contributions from (in alphabetic order):
   Daniel Aravena         : Magnetic Suceptibility
   Michael Atanasov       : Ab Initio Ligand Field Theory (pilot matlab implementation)
   Alexander A. Auer      : GIAO ZORA, VPT2
   Ute Becker             : Parallelization
   Giovanni Bistoni       : ED, misc. LED, open-shell LED, HFLED
   Martin Brehm           : Molecular dynamics
   Dmytro Bykov           : SCF Hessian
   Vijay G. Chilkuri      : MRCI spin determinant printing, contributions to CSF-ICE
   Dipayan Datta          : RHF DLPNO-CCSD density
   Achintya Kumar Dutta   : EOM-CC, STEOM-CC
   Dmitry Ganyushin       : Spin-Orbit,Spin-Spin,Magnetic field MRCI
   Miquel Garcia          : C-PCM Hessian, Gaussian charge scheme
   Yang Guo               : DLPNO-NEVPT2, CIM, IAO-localization
   Andreas Hansen         : Spin unrestricted coupled pair/coupled cluster methods
   Benjamin Helmich-Paris : CASSCF linear response (MC-RPA)
   Lee Huntington         : MR-EOM, pCC
   Robert Izsak           : Overlap fitted RIJCOSX, COSX-SCS-MP3, EOM
   Christian Kollmar      : KDIIS, OOCD, Brueckner-CCSD(T), CCSD density
   Simone Kossmann        : Meta GGA functionals, TD-DFT gradient, OOMP2, MP2 Hessian
   Martin Krupicka        : AUTO-CI
   Lucas Lang             : DCDCAS
   Dagmar Lenk            : GEPOL surface, SMD
   Dimitrios Liakos       : Extrapolation schemes; Compound Job, initial MDCI parallelization
   Dimitrios Manganas     : Further ROCIS development; embedding schemes
   Dimitrios Pantazis     : SARC Basis sets
   Taras Petrenko         : DFT Hessian,TD-DFT gradient, ASA, ECA, R-Raman, ABS, FL, XAS/XES, NRVS
   Peter Pinski           : DLPNO-MP2, DLPNO-MP2 Gradient
   Christoph Reimann      : Effective Core Potentials
   Marius Retegan         : Local ZFS, SOC
   Christoph Riplinger    : Optimizer, TS searches, QM/MM, DLPNO-CCSD(T), (RO)-DLPNO pert. Triples
   Tobias Risthaus        : Range-separated hybrids, TD-DFT gradient, RPA, STAB
   Michael Roemelt        : Original ROCIS implementation
   Masaaki Saitow         : Open-shell DLPNO-CCSD energy and density
   Barbara Sandhoefer     : DKH picture change effects
   Avijit Sen             : IP-ROCIS
   Kantharuban Sivalingam : CASSCF convergence, NEVPT2, FIC-MRCI
   Bernardo de Souza      : ESD, SOC TD-DFT
   Georgi Stoychev        : AutoAux, RI-MP2 NMR
   Willem Van den Heuvel  : Paramagnetic NMR
   Boris Wezisla          : Elementary symmetry handling
   Frank Wennmohs         : Technical directorship


 We gratefully acknowledge several colleagues who have allowed us to
 interface, adapt or use parts of their codes:
   Stefan Grimme, W. Hujo, H. Kruse,             : VdW corrections, initial TS optimization,
                  C. Bannwarth                     DFT functionals, gCP, sTDA/sTD-DF
   Ed Valeev, F. Pavosevic, A. Kumar             : LibInt (2-el integral package), F12 methods
   Garnet Chan, S. Sharma, J. Yang, R. Olivares  : DMRG
   Ulf Ekstrom                                   : XCFun DFT Library
   Mihaly Kallay                                 : mrcc  (arbitrary order and MRCC methods)
   Andreas Klamt, Michael Diedenhofen            : otool_cosmo (COSMO solvation model)
   Jiri Pittner, Ondrej Demel                    : Mk-CCSD
   Frank Weinhold                                : gennbo (NPA and NBO analysis)
   Christopher J. Cramer and Donald G. Truhlar   : smd solvation model
   Lars Goerigk                                  : TD-DFT with DH, B97 family of functionals
   V. Asgeirsson, H. Jonsson                     : NEB implementation
   FAccTs GmbH                                   : IRC, NEB, NEB-TS, Multilevel, MM, QM/MM, CI optimization
   S Lehtola, MJT Oliveira, MAL Marques          : LibXC Library


 Your calculation uses the libint2 library for the computation of 2-el integrals
 For citations please refer to: http://libint.valeyev.net

 Your ORCA version has been built with support for libXC version: 4.2.3
 For citations please refer to: https://tddft.org/programs/libxc/

 This ORCA versions uses:
   CBLAS   interface :  Fast vector & matrix operations
   LAPACKE interface :  Fast linear algebra routines
   SCALAPACK package :  Parallel linear algebra routines


Your calculation utilizes the atom-pairwise dispersion correction
with the Becke-Johnson damping scheme (D3BJ)
Cite in your paper:
S.Grimme, S.Ehrlich, L.Goerigk, J Comput Chem, (2011), 32, 1456–1465 
S.Grimme, J.Antony, S.Ehrlich and H.Krieg, J.Chem.Phys., 132, (2010), 154104 
   

----- Orbital basis set information -----
Your calculation utilizes the basis: def2-TZVPPD
   F. Weigend and R. Ahlrichs, Phys. Chem. Chem. Phys. 7, 3297 (2005).
   D. Rappoport and F. Furche, J. Chem. Phys. 133 134105 (2010).

----- AuxC basis set information -----
Your calculation utilizes the auxiliary basis: def2-TZVPPD/C
   A. Hellweg, C. Hattig, S. Hofener and W. Klopper, Theor. Chem. Acc. 117, 587 (2007).

----- AuxJK basis set information -----
Your calculation utilizes the auxiliary basis: def2/JK
   H-Ba, Hf-Rn: F. Weigend, J. Comput. Chem. 29, 167 (2008).

================================================================================
                                        WARNINGS
                       Please study these warnings very carefully!
================================================================================


WARNING: your system is open-shell and RHF/RKS was chosen
  ===> : WILL SWITCH to UHF/UKS


WARNING: No MP2 level density has been requested!
         To caclulate MP2 level properties use
         %mp2 Density relaxed end
         or
         %mp2 Density unrelaxed end
         Otherwise for double-hybrid DFT only the energy is correct!

WARNING: There are different parametrizations of Gershom Martin's DSD-DFs
         for use with and without D3(BJ)!
         You are using the D3(BJ) parametrized version,
         consistent with the 2013 article (S. Kozuch and J. M. L. Martin, JCC 2013, 34, 2327)

WARNING: The frozen-core approximation is turned on by default for 
         the MP2 part of double-hybrid DFT.

INFO   : the flag for use of LIBINT has been found!

================================================================================
                                       INPUT FILE
================================================================================
NAME = TMD16_VO.in
|  1> #
|  2> # TMD16_VO ri-DSD-BLYP/2013-D3BJ/Def2-TZVPPD
|  3> #
|  4> ! rijk ri-dsd-blyp/2013 d3bj def2-tzvppd def2/jk def2-tzvppd/c grid4 nofinalgrid
|  5> 
|  6> *xyz 0 4
|  7> V        0.000000    0.000000    0.412903 
|  8> O        0.000000    0.000000   -1.187097 
|  9> *
| 10> 
| 11> %maxcore 5000
| 12> 
| 13> %pal
| 14> nprocs = 24
| 15> end
| 16> 
| 17> 
| 18>                          ****END OF INPUT****
================================================================================

                       ****************************
                       * Single Point Calculation *
                       ****************************

---------------------------------
CARTESIAN COORDINATES (ANGSTROEM)
---------------------------------
  V      0.000000    0.000000    0.412903
  O      0.000000    0.000000   -1.187097

----------------------------
CARTESIAN COORDINATES (A.U.)
----------------------------
  NO LB      ZA    FRAG     MASS         X           Y           Z
   0 V    23.0000    0    50.940    0.000000    0.000000    0.780274
   1 O     8.0000    0    15.999    0.000000    0.000000   -2.243288

--------------------------------
INTERNAL COORDINATES (ANGSTROEM)
--------------------------------
 V      0   0   0     0.000000000000     0.00000000     0.00000000
 O      1   0   0     1.600000000000     0.00000000     0.00000000

---------------------------
INTERNAL COORDINATES (A.U.)
---------------------------
 V      0   0   0     0.000000000000     0.00000000     0.00000000
 O      1   0   0     3.023561814274     0.00000000     0.00000000

---------------------
BASIS SET INFORMATION
---------------------
There are 2 groups of distinct atoms

 Group   1 Type V   : 17s13p7d2f1g contracted to 6s6p4d2f1g pattern {842111/631111/4111/11/1}
 Group   2 Type O   : 12s7p3d1f contracted to 6s4p3d1f pattern {621111/4111/111/1}

Atom   0V    basis set group =>   1
Atom   1O    basis set group =>   2
---------------------------------
AUXILIARY/C BASIS SET INFORMATION
---------------------------------
There are 2 groups of distinct atoms

 Group   1 Type V   : 10s10p9d7f5g3h1i contracted to 10s10p9d7f5g3h1i pattern {1111111111/1111111111/111111111/1111111/11111/111/1}
 Group   2 Type O   : 9s7p6d4f1g contracted to 9s7p5d4f1g pattern {111111111/1111111/21111/1111/1}

Atom   0V    basis set group =>   1
Atom   1O    basis set group =>   2
----------------------------------
AUXILIARY/JK BASIS SET INFORMATION
----------------------------------
There are 2 groups of distinct atoms

 Group   1 Type V   : 19s14p12d10f7g3h1i contracted to 16s13p11d9f5g3h1i pattern {4111111111111111/2111111111111/21111111111/211111111/31111/111/1}
 Group   2 Type O   : 14s10p6d2f1g contracted to 10s8p4d2f1g pattern {5111111111/31111111/3111/11/1}

Atom   0V    basis set group =>   1
Atom   1O    basis set group =>   2


           ************************************************************
           *        Program running with 24 parallel MPI-processes    *
           *              working on a common directory               *
           ************************************************************
------------------------------------------------------------------------------
                           ORCA GTO INTEGRAL CALCULATION
                           -- RI-GTO INTEGRALS CHOSEN --
------------------------------------------------------------------------------

                         BASIS SET STATISTICS AND STARTUP INFO

Gaussian basis set:
 # of primitive gaussian shells          ...   63
 # of primitive gaussian functions       ...  169
 # of contracted shells                  ...   33
 # of contracted basis functions         ...  107
 Highest angular momentum                ...    4
 Maximum contraction depth               ...    8
Auxiliary gaussian basis set:
 # of primitive gaussian shells          ...   99
 # of primitive gaussian functions       ...  397
 # of contracted shells                  ...   83
 # of contracted aux-basis functions     ...  341
 Highest angular momentum                ...    6
 Maximum contraction depth               ...    5
Ratio of auxiliary to basis functions    ...  3.19
Integral package used                  ... LIBINT
 One Electron integrals                  ... done
 Ordering auxiliary basis shells         ... done
 Integral threshhold             Thresh  ...  1.000e-10
 Primitive cut-off               TCut    ...  1.000e-11
 Pre-screening matrix                    ... done
 Shell pair data                         ... 
 Ordering of the shell pairs             ... done (   0.000 sec) 557 of 561 pairs
 Determination of significant pairs      ... done (   0.000 sec)
 Creation of shell pair data             ... done (   0.000 sec)
 Storage of shell pair data              ... done (   0.033 sec)
 Shell pair data done in (   0.034 sec)
 Computing two index integrals           ... done
 Cholesky decomposition of the V-matrix  ... done


Timings:
 Total evaluation time                   ...   0.231 sec (  0.004 min)
 One electron matrix time                ...   0.015 sec (  0.000 min) =  6.7%
 Schwartz matrix evaluation time         ...   0.119 sec (  0.002 min) = 51.5%
 Two index repulsion integral time       ...   0.028 sec (  0.000 min) = 12.3%
 Cholesky decomposition of V             ...   0.002 sec (  0.000 min) =  1.0%
 Three index repulsion integral time     ...   0.000 sec (  0.000 min) =  0.0%



           ************************************************************
           *        Program running with 24 parallel MPI-processes    *
           *              working on a common directory               *
           ************************************************************
-------------------------------------------------------------------------------
                                 ORCA SCF
-------------------------------------------------------------------------------

------------
SCF SETTINGS
------------
Hamiltonian:
 Density Functional     Method          .... DFT(GTOs)
 Exchange Functional    Exchange        .... B88
   X-Alpha parameter    XAlpha          ....  0.666667
   Becke's b parameter  XBeta           ....  0.004200
 Correlation Functional Correlation     .... LYP
 LDA part of GGA corr.  LDAOpt          .... VWN-5
 Gradients option       PostSCFGGA      .... off
 Hybrid DFT is turned on
   Fraction HF Exchange ScalHFX         ....  0.710000
   Scaling of DF-GGA-X  ScalDFX         ....  0.290000
   Scaling of DF-GGA-C  ScalDFC         ....  0.540000
   Scaling of DF-LDA-C  ScalLDAC        ....  0.540000
   Perturbative correction              ....  1.000000
   Density functional embedding theory  .... OFF
 RI-approximation to the Coulomb term is turned on
   Number of auxiliary basis functions  .... 341
   RI-JK (J+K treated both via RI)      .... on


General Settings:
 Integral files         IntName         .... TMD16_VO
 Hartree-Fock type      HFTyp           .... UHF
 Total Charge           Charge          ....    0
 Multiplicity           Mult            ....    4
 Number of Electrons    NEL             ....   31
 Basis Dimension        Dim             ....  107
 Nuclear Repulsion      ENuc            ....     60.8553789545 Eh

Convergence Acceleration:
 DIIS                   CNVDIIS         .... on
   Start iteration      DIISMaxIt       ....    12
   Startup error        DIISStart       ....  0.200000
   # of expansion vecs  DIISMaxEq       ....     5
   Bias factor          DIISBfac        ....   1.050
   Max. coefficient     DIISMaxC        ....  10.000
 Newton-Raphson         CNVNR           .... off
 SOSCF                  CNVSOSCF        .... off
 Level Shifting         CNVShift        .... on
   Level shift para.    LevelShift      ....    0.2500
   Turn off err/grad.   ShiftErr        ....    0.0010
 Zerner damping         CNVZerner       .... off
 Static damping         CNVDamp         .... on
   Fraction old density DampFac         ....    0.7000
   Max. Damping (<1)    DampMax         ....    0.9800
   Min. Damping (>=0)   DampMin         ....    0.0000
   Turn off err/grad.   DampErr         ....    0.1000
 Fernandez-Rico         CNVRico         .... off

SCF Procedure:
 Maximum # iterations   MaxIter         ....   125
 SCF integral mode      SCFMode         .... Direct
   Integral package                     .... LIBINT
 Reset frequency        DirectResetFreq ....    20
 Integral Threshold     Thresh          ....  1.000e-10 Eh
 Primitive CutOff       TCut            ....  1.000e-11 Eh

Convergence Tolerance:
 Convergence Check Mode ConvCheckMode   .... Total+1el-Energy
 Convergence forced     ConvForced      .... 0
 Energy Change          TolE            ....  1.000e-06 Eh
 1-El. energy change                    ....  1.000e-03 Eh
 DIIS Error             TolErr          ....  1.000e-06


Diagonalization of the overlap matrix:
Smallest eigenvalue                        ... 6.199e-04
Time for diagonalization                   ...    0.003 sec
Threshold for overlap eigenvalues          ... 1.000e-08
Number of eigenvalues below threshold      ... 0
Time for construction of square roots      ...    0.002 sec
Total time needed                          ...    0.004 sec

-------------------
DFT GRID GENERATION
-------------------

General Integration Accuracy     IntAcc      ...  4.670
Radial Grid Type                 RadialGrid  ... Gauss-Chebyshev
Angular Grid (max. acc.)         AngularGrid ... Lebedev-302
Angular grid pruning method      GridPruning ... 3 (G Style)
Weight generation scheme         WeightScheme... Becke
Basis function cutoff            BFCut       ...    1.0000e-10
Integration weight cutoff        WCut        ...    1.0000e-14
Grids for H and He will be reduced by one unit

# of grid points (after initial pruning)     ...  15876 (   0.0 sec)
# of grid points (after weights+screening)   ...  15834 (   0.0 sec)
nearest neighbour list constructed           ...    0.0 sec
Grid point re-assignment to atoms done       ...    0.0 sec
Grid point division into batches done        ...    0.1 sec
Reduced shell lists constructed in    0.1 sec

Total number of grid points                  ...    15834
Total number of batches                      ...      249
Average number of points per batch           ...       63
Average number of grid points per atom       ...     7917
Average number of shells per batch           ...     7.42 (22.47%)
Average number of basis functions per batch  ...    19.92 (18.61%)
Average number of large shells per batch     ...     5.00 (67.42%)
Average number of large basis fcns per batch ...    14.67 (73.64%)
Average number of aux-shells per batch       ...     7.42 ( 8.94%)
Average number of aux functions per batch    ...    19.92 ( 5.84%)
Maximum spatial batch extension              ...  28.57, 31.41, 18.15 au
Average spatial batch extension              ...   0.89,  0.96,  0.67 au

Time for grid setup =    0.164 sec

------------------------------
INITIAL GUESS: MODEL POTENTIAL
------------------------------
Loading Hartree-Fock densities                     ... done
Calculating cut-offs                               ... done
Setting up the integral package                    ... done
Initializing the effective Hamiltonian             ... done
Starting the Coulomb interaction                   ... done (   0.0 sec)
Reading the grid                                   ... done
Mapping shells                                     ... done
Starting the XC term evaluation                    ... done (   0.0 sec)
  promolecular density results
     # of electrons  =     30.999998857
     EX              =    -52.320704342
     EC              =     -0.175107195
     EX+EC           =    -52.495811537
Transforming the Hamiltonian                       ... done (   0.0 sec)
Diagonalizing the Hamiltonian                      ... done (   0.0 sec)
Back transforming the eigenvectors                 ... done (   0.0 sec)
Now organizing SCF variables                       ... done
                      ------------------
                      INITIAL GUESS DONE (   0.2 sec)
                      ------------------
--------------
SCF ITERATIONS
--------------
ITER       Energy         Delta-E        Max-DP      RMS-DP      [F,P]     Damp
  0  -1018.2172612568   0.000000000000 0.04300433  0.00132825  0.4660105 0.7000
  1  -1018.1866320243   0.030629232484 0.03613001  0.00113869  0.3289215 0.7000
                               ***Turning on DIIS***
  2  -1018.1638435934   0.022788430845 0.07021446  0.00173130  0.0768060 0.0000
  3  -1018.3824559767  -0.218612383225 0.00725912  0.00024927  0.2748005 0.7000
  4  -1018.4308571971  -0.048401220436 0.00974958  0.00027519  0.2510733 0.7000
  5  -1018.4651743330  -0.034317135929 0.01164678  0.00028047  0.1993462 0.7000
  6  -1018.5047108533  -0.039536520331 0.00995893  0.00025925  0.1521804 0.7000
  7  -1018.5229483382  -0.018237484873 0.01163457  0.00033587  0.1157303 0.7000
  8  -1018.5513238262  -0.028375487992 0.02653487  0.00084863  0.0851944 0.0000
  9  -1018.4977990944   0.053524731828 0.01406696  0.00029173  0.0254783 0.0000
 10  -1018.4997399595  -0.001940865092 0.00558727  0.00010228  0.0159614 0.0000
 11  -1018.5002346588  -0.000494699356 0.00470644  0.00006723  0.0053885 0.0000
 12  -1018.5004426091  -0.000207950310 0.00466997  0.00006499  0.0018212 0.0000
 13  -1018.5005824240  -0.000139814836 0.00408931  0.00006043  0.0012619 0.0000
 14  -1018.5006885034  -0.000106079412 0.00450195  0.00007177  0.0010178 0.0000
 15  -1018.5007921735  -0.000103670060 0.00673712  0.00011866  0.0008558 0.0000
 16  -1018.5009029218  -0.000110748313 0.00340494  0.00006492  0.0008736 0.0000
 17  -1018.5009376855  -0.000034763719 0.00346520  0.00006751  0.0003989 0.0000
 18  -1018.5009532759  -0.000015590374 0.00077634  0.00001822  0.0002798 0.0000
 19  -1018.5009555300  -0.000002254127 0.00020001  0.00000390  0.0004648 0.0000
                 **** Energy Check signals convergence ****

               *****************************************************
               *                     SUCCESS                       *
               *           SCF CONVERGED AFTER  20 CYCLES          *
               *****************************************************


----------------
TOTAL SCF ENERGY
----------------

Total Energy       :        -1018.50095627 Eh          -27714.82001 eV

Components:
Nuclear Repulsion  :           60.85537895 Eh            1655.95905 eV
Electronic Energy  :        -1079.35633522 Eh          -29370.77906 eV
One Electron Energy:        -1520.38748114 Eh          -41371.84667 eV
Two Electron Energy:          441.03114592 Eh           12001.06760 eV

Virial components:
Potential Energy   :        -2036.01415211 Eh          -55402.76170 eV
Kinetic Energy     :         1017.51319585 Eh           27687.94169 eV
Virial Ratio       :            2.00097076


DFT components:
N(Alpha)           :       16.999998231089 electrons
N(Beta)            :       13.999997897002 electrons
N(Total)           :       30.999996128090 electrons
E(X)               :      -15.260579000840 Eh       
E(C)               :       -0.692146301906 Eh       
E(XC)              :      -15.952725302747 Eh       
DFET-embed. en.    :        0.000000000000 Eh       

---------------
SCF CONVERGENCE
---------------

  Last Energy change         ...   -7.3823e-07  Tolerance :   1.0000e-06
  Last MAX-Density change    ...    7.2012e-04  Tolerance :   1.0000e-05
  Last RMS-Density change    ...    1.5933e-05  Tolerance :   1.0000e-06
  Last DIIS Error            ...    1.4668e-04  Tolerance :   1.0000e-06

             **** THE GBW FILE WAS UPDATED (TMD16_VO.gbw) ****
             **** DENSITY FILE WAS UPDATED (TMD16_VO.scfp) ****
             **** ENERGY FILE WAS UPDATED (TMD16_VO.en.tmp) ****
----------------------
UHF SPIN CONTAMINATION
----------------------

Warning: in a DFT calculation there is little theoretical justification to 
         calculate <S**2> as in Hartree-Fock theory. We will do it anyways
         but you should keep in mind that the values have only limited relevance

Expectation value of <S**2>     :     3.909239
Ideal value S*(S+1) for S=1.5   :     3.750000
Deviation                       :     0.159239

             **** THE GBW FILE WAS UPDATED (TMD16_VO.gbw) ****
             **** DENSITY FILE WAS UPDATED (TMD16_VO.scfp) ****
----------------
ORBITAL ENERGIES
----------------
                 SPIN UP ORBITALS
  NO   OCC          E(Eh)            E(eV) 
   0   1.0000    -199.864073     -5438.5779 
   1   1.0000     -23.327457      -634.7724 
   2   1.0000     -20.008359      -544.4551 
   3   1.0000     -19.604526      -533.4663 
   4   1.0000     -19.600430      -533.3548 
   5   1.0000     -19.600430      -533.3548 
   6   1.0000      -3.065236       -83.4093 
   7   1.0000      -1.996218       -54.3199 
   8   1.0000      -1.996218       -54.3199 
   9   1.0000      -1.975895       -53.7668 
  10   1.0000      -1.038739       -28.2655 
  11   1.0000      -0.420834       -11.4515 
  12   1.0000      -0.395722       -10.7681 
  13   1.0000      -0.395722       -10.7681 
  14   1.0000      -0.390188       -10.6176 
  15   1.0000      -0.390188       -10.6176 
  16   1.0000      -0.246190        -6.6992 
  17   0.0000      -0.010619        -0.2890 
  18   0.0000      -0.010619        -0.2890 
  19   0.0000      -0.007534        -0.2050 
  20   0.0000       0.061936         1.6854 
  21   0.0000       0.066833         1.8186 
  22   0.0000       0.066833         1.8186 
  23   0.0000       0.072737         1.9793 
  24   0.0000       0.133464         3.6317 
  25   0.0000       0.133464         3.6317 
  26   0.0000       0.156476         4.2579 
  27   0.0000       0.160654         4.3716 
  28   0.0000       0.160654         4.3716 
  29   0.0000       0.165028         4.4906 
  30   0.0000       0.165028         4.4906 
  31   0.0000       0.211791         5.7631 
  32   0.0000       0.234612         6.3841 
  33   0.0000       0.234612         6.3841 
  34   0.0000       0.255579         6.9547 
  35   0.0000       0.342259         9.3133 
  36   0.0000       0.448994        12.2177 
  37   0.0000       0.448994        12.2177 
  38   0.0000       0.499786        13.5999 
  39   0.0000       0.499786        13.5999 
  40   0.0000       0.505120        13.7450 
  41   0.0000       0.633449        17.2370 
  42   0.0000       0.633449        17.2370 
  43   0.0000       0.637340        17.3429 
  44   0.0000       0.694708        18.9040 
  45   0.0000       0.694708        18.9040 
  46   0.0000       0.784108        21.3367 
  47   0.0000       0.784108        21.3367 
  48   0.0000       0.819587        22.3021 
  49   0.0000       0.880901        23.9705 
  50   0.0000       0.880901        23.9705 
  51   0.0000       0.938118        25.5275 
  52   0.0000       0.981107        26.6973 
  53   0.0000       1.204476        32.7755 
  54   0.0000       1.204476        32.7755 
  55   0.0000       1.297499        35.3068 
  56   0.0000       1.297499        35.3068 
  57   0.0000       1.455832        39.6152 
  58   0.0000       1.455832        39.6152 
  59   0.0000       1.710908        46.5562 
  60   0.0000       1.878491        51.1163 
  61   0.0000       1.878491        51.1163 
  62   0.0000       1.884873        51.2900 
  63   0.0000       1.952612        53.1333 
  64   0.0000       1.952613        53.1333 
  65   0.0000       2.082217        56.6600 
  66   0.0000       2.230895        60.7057 
  67   0.0000       2.230895        60.7057 
  68   0.0000       2.604850        70.8816 
  69   0.0000       2.604850        70.8816 
  70   0.0000       2.676209        72.8233 
  71   0.0000       2.726749        74.1986 
  72   0.0000       2.726749        74.1986 
  73   0.0000       2.925032        79.5942 
  74   0.0000       3.108476        84.5859 
  75   0.0000       3.108476        84.5859 
  76   0.0000       3.325837        90.5006 
  77   0.0000       4.155771       113.0843 
  78   0.0000       4.255394       115.7952 
  79   0.0000       4.255395       115.7952 
  80   0.0000       4.293133       116.8221 
  81   0.0000       4.293136       116.8222 
  82   0.0000       4.294852       116.8689 
  83   0.0000       4.294852       116.8689 
  84   0.0000       4.411871       120.0531 
  85   0.0000       4.411871       120.0531 
  86   0.0000       4.693321       127.7117 
  87   0.0000       4.787984       130.2877 
  88   0.0000       4.787984       130.2877 
  89   0.0000       4.850023       131.9758 
  90   0.0000       4.850024       131.9759 
  91   0.0000       4.977228       135.4373 
  92   0.0000       5.018274       136.5542 
  93   0.0000       5.018274       136.5542 
  94   0.0000       5.468537       148.8065 
  95   0.0000       5.468537       148.8065 
  96   0.0000       5.669683       154.2799 
  97   0.0000       5.669687       154.2800 
  98   0.0000       6.169316       167.8756 
  99   0.0000       6.169316       167.8756 
 100   0.0000       6.653677       181.0557 
 101   0.0000       6.781548       184.5353 
 102   0.0000       6.781626       184.5374 
 103   0.0000       7.144536       194.4127 
 104   0.0000       7.144536       194.4127 
 105   0.0000       7.513423       204.4506 
 106   0.0000      44.647115      1214.9098 

                 SPIN DOWN ORBITALS
  NO   OCC          E(Eh)            E(eV) 
   0   1.0000    -199.862474     -5438.5344 
   1   1.0000     -23.283292      -633.5706 
   2   1.0000     -20.029281      -545.0244 
   3   1.0000     -19.584031      -532.9086 
   4   1.0000     -19.549318      -531.9640 
   5   1.0000     -19.549318      -531.9640 
   6   1.0000      -2.916547       -79.3633 
   7   1.0000      -1.888575       -51.3907 
   8   1.0000      -1.780527       -48.4506 
   9   1.0000      -1.780527       -48.4506 
  10   1.0000      -1.098127       -29.8816 
  11   1.0000      -0.460375       -12.5274 
  12   1.0000      -0.433945       -11.8083 
  13   1.0000      -0.433945       -11.8083 
  14   0.0000      -0.036964        -1.0059 
  15   0.0000       0.022758         0.6193 
  16   0.0000       0.022758         0.6193 
  17   0.0000       0.035966         0.9787 
  18   0.0000       0.085875         2.3368 
  19   0.0000       0.093228         2.5369 
  20   0.0000       0.099516         2.7080 
  21   0.0000       0.099516         2.7080 
  22   0.0000       0.104889         2.8542 
  23   0.0000       0.104891         2.8542 
  24   0.0000       0.158009         4.2996 
  25   0.0000       0.158009         4.2996 
  26   0.0000       0.172370         4.6904 
  27   0.0000       0.175708         4.7812 
  28   0.0000       0.175708         4.7812 
  29   0.0000       0.224518         6.1094 
  30   0.0000       0.224522         6.1096 
  31   0.0000       0.241981         6.5846 
  32   0.0000       0.248315         6.7570 
  33   0.0000       0.248315         6.7570 
  34   0.0000       0.266483         7.2514 
  35   0.0000       0.353688         9.6243 
  36   0.0000       0.483550        13.1581 
  37   0.0000       0.483550        13.1581 
  38   0.0000       0.505094        13.7443 
  39   0.0000       0.505094        13.7443 
  40   0.0000       0.525867        14.3096 
  41   0.0000       0.631557        17.1855 
  42   0.0000       0.631557        17.1855 
  43   0.0000       0.667122        18.1533 
  44   0.0000       0.789111        21.4728 
  45   0.0000       0.789114        21.4729 
  46   0.0000       0.795196        21.6384 
  47   0.0000       0.795196        21.6384 
  48   0.0000       0.845602        23.0100 
  49   0.0000       0.892753        24.2930 
  50   0.0000       0.892753        24.2930 
  51   0.0000       0.936763        25.4906 
  52   0.0000       0.973044        26.4779 
  53   0.0000       1.283640        34.9296 
  54   0.0000       1.283640        34.9296 
  55   0.0000       1.334066        36.3018 
  56   0.0000       1.334067        36.3018 
  57   0.0000       1.473832        40.1050 
  58   0.0000       1.473832        40.1050 
  59   0.0000       1.732834        47.1528 
  60   0.0000       1.894222        51.5444 
  61   0.0000       1.938329        52.7446 
  62   0.0000       1.938331        52.7447 
  63   0.0000       1.943267        52.8790 
  64   0.0000       1.943267        52.8790 
  65   0.0000       2.106917        57.3321 
  66   0.0000       2.223107        60.4938 
  67   0.0000       2.223107        60.4938 
  68   0.0000       2.719019        73.9883 
  69   0.0000       2.719019        73.9883 
  70   0.0000       2.747151        74.7538 
  71   0.0000       2.747151        74.7538 
  72   0.0000       2.750324        74.8401 
  73   0.0000       2.915727        79.3410 
  74   0.0000       3.097846        84.2967 
  75   0.0000       3.097846        84.2967 
  76   0.0000       3.301905        89.8494 
  77   0.0000       4.171206       113.5043 
  78   0.0000       4.289845       116.7326 
  79   0.0000       4.289846       116.7327 
  80   0.0000       4.343511       118.1929 
  81   0.0000       4.343511       118.1929 
  82   0.0000       4.375237       119.0563 
  83   0.0000       4.375244       119.0564 
  84   0.0000       4.440142       120.8224 
  85   0.0000       4.440142       120.8224 
  86   0.0000       4.702369       127.9580 
  87   0.0000       4.931146       134.1833 
  88   0.0000       4.931147       134.1833 
  89   0.0000       4.957203       134.8924 
  90   0.0000       4.957203       134.8924 
  91   0.0000       5.042968       137.2261 
  92   0.0000       5.089209       138.4844 
  93   0.0000       5.089209       138.4844 
  94   0.0000       5.453039       148.3847 
  95   0.0000       5.453039       148.3847 
  96   0.0000       5.654965       153.8794 
  97   0.0000       5.654968       153.8795 
  98   0.0000       6.151223       167.3833 
  99   0.0000       6.151223       167.3833 
 100   0.0000       6.636488       180.5880 
 101   0.0000       6.751243       183.7107 
 102   0.0000       6.751322       183.7128 
 103   0.0000       7.111337       193.5093 
 104   0.0000       7.111337       193.5093 
 105   0.0000       7.487858       203.7550 
 106   0.0000      44.634249      1214.5597 

                    ********************************
                    * MULLIKEN POPULATION ANALYSIS *
                    ********************************

--------------------------------------------
MULLIKEN ATOMIC CHARGES AND SPIN POPULATIONS
--------------------------------------------
   0 V :    0.810409    3.426146
   1 O :   -0.810409   -0.426146
Sum of atomic charges         :   -0.0000000
Sum of atomic spin populations:    3.0000000

-----------------------------------------------------
MULLIKEN REDUCED ORBITAL CHARGES AND SPIN POPULATIONS
-----------------------------------------------------
CHARGE
  0 V s       :     6.648922  s :     6.648922
      pz      :     4.123841  p :    12.183593
      px      :     4.029876
      py      :     4.029876
      dz2     :     0.704627  d :     3.318752
      dxz     :     0.306442
      dyz     :     0.306442
      dx2y2   :     1.000620
      dxy     :     1.000620
      f0      :     0.007663  f :     0.035659
      f+1     :     0.013884
      f-1     :     0.013884
      f+2     :     0.000114
      f-2     :     0.000114
      f+3     :     0.000000
      f-3     :     0.000000
      g0      :     0.001100  g :     0.002666
      g+1     :     0.000781
      g-1     :     0.000781
      g+2     :     0.000001
      g-2     :     0.000001
      g+3     :     0.000000
      g-3     :     0.000000
      g+4     :     0.000000
      g-4     :     0.000000
  1 O s       :     4.038499  s :     4.038499
      pz      :     1.463598  p :     4.744797
      px      :     1.640600
      py      :     1.640600
      dz2     :     0.010990  d :     0.025648
      dxz     :     0.008103
      dyz     :     0.008103
      dx2y2   :    -0.000774
      dxy     :    -0.000774
      f0      :     0.000760  f :     0.001464
      f+1     :     0.000314
      f-1     :     0.000314
      f+2     :     0.000039
      f-2     :     0.000039
      f+3     :     0.000000
      f-3     :     0.000000

SPIN
  0 V s       :     0.651832  s :     0.651832
      pz      :     0.116981  p :     0.139067
      px      :     0.011043
      py      :     0.011043
      dz2     :     0.411894  d :     2.636888
      dxz     :     0.111877
      dyz     :     0.111877
      dx2y2   :     1.000620
      dxy     :     1.000620
      f0      :    -0.000908  f :    -0.001331
      f+1     :    -0.000325
      f-1     :    -0.000325
      f+2     :     0.000114
      f-2     :     0.000114
      f+3     :    -0.000000
      f-3     :    -0.000000
      g0      :    -0.000121  g :    -0.000310
      g+1     :    -0.000096
      g-1     :    -0.000096
      g+2     :     0.000001
      g-2     :     0.000001
      g+3     :    -0.000000
      g-3     :    -0.000000
      g+4     :    -0.000000
      g-4     :     0.000000
  1 O s       :     0.063390  s :     0.063390
      pz      :    -0.246756  p :    -0.496163
      px      :    -0.124704
      py      :    -0.124704
      dz2     :     0.003557  d :     0.006386
      dxz     :     0.002188
      dyz     :     0.002188
      dx2y2   :    -0.000774
      dxy     :    -0.000774
      f0      :     0.000131  f :     0.000241
      f+1     :     0.000017
      f-1     :     0.000017
      f+2     :     0.000039
      f-2     :     0.000039
      f+3     :    -0.000000
      f-3     :    -0.000000


                     *******************************
                     * LOEWDIN POPULATION ANALYSIS *
                     *******************************

-------------------------------------------
LOEWDIN ATOMIC CHARGES AND SPIN POPULATIONS
-------------------------------------------
   0 V :    0.501929    3.256744
   1 O :   -0.501929   -0.256744

----------------------------------------------------
LOEWDIN REDUCED ORBITAL CHARGES AND SPIN POPULATIONS
----------------------------------------------------
CHARGE
  0 V s       :     6.462693  s :     6.462693
      pz      :     4.244541  p :    12.320041
      px      :     4.037750
      py      :     4.037750
      dz2     :     0.848663  d :     3.574153
      dxz     :     0.369101
      dyz     :     0.369101
      dx2y2   :     0.993644
      dxy     :     0.993644
      f0      :     0.053370  f :     0.131248
      f+1     :     0.038707
      f-1     :     0.038707
      f+2     :     0.000232
      f-2     :     0.000232
      f+3     :     0.000000
      f-3     :     0.000000
      g0      :     0.005092  g :     0.009935
      g+1     :     0.002418
      g-1     :     0.002418
      g+2     :     0.000004
      g-2     :     0.000004
      g+3     :     0.000000
      g-3     :     0.000000
      g+4     :     0.000000
      g-4     :     0.000000
  1 O s       :     3.685864  s :     3.685864
      pz      :     1.581378  p :     4.642813
      px      :     1.530717
      py      :     1.530717
      dz2     :     0.114806  d :     0.168681
      dxz     :     0.020947
      dyz     :     0.020947
      dx2y2   :     0.005991
      dxy     :     0.005991
      f0      :     0.003592  f :     0.004571
      f+1     :     0.000360
      f-1     :     0.000360
      f+2     :     0.000129
      f-2     :     0.000129
      f+3     :     0.000000
      f-3     :     0.000000

SPIN
  0 V s       :     0.555661  s :     0.555661
      pz      :     0.121779  p :     0.135981
      px      :     0.007101
      py      :     0.007101
      dz2     :     0.387184  d :     2.580282
      dxz     :     0.102905
      dyz     :     0.102905
      dx2y2   :     0.993644
      dxy     :     0.993644
      f0      :    -0.005434  f :    -0.013369
      f+1     :    -0.004199
      f-1     :    -0.004199
      f+2     :     0.000232
      f-2     :     0.000232
      f+3     :    -0.000000
      f-3     :    -0.000000
      g0      :    -0.001076  g :    -0.001810
      g+1     :    -0.000371
      g-1     :    -0.000371
      g+2     :     0.000004
      g-2     :     0.000004
      g+3     :    -0.000000
      g-3     :    -0.000000
      g+4     :    -0.000000
      g-4     :     0.000000
  1 O s       :     0.066595  s :     0.066595
      pz      :    -0.131018  p :    -0.347029
      px      :    -0.108006
      py      :    -0.108006
      dz2     :     0.005803  d :     0.022809
      dxz     :     0.002512
      dyz     :     0.002512
      dx2y2   :     0.005991
      dxy     :     0.005991
      f0      :     0.000507  f :     0.000881
      f+1     :     0.000058
      f-1     :     0.000058
      f+2     :     0.000129
      f-2     :     0.000129
      f+3     :    -0.000000
      f-3     :    -0.000000


                      *****************************
                      * MAYER POPULATION ANALYSIS *
                      *****************************

  NA   - Mulliken gross atomic population
  ZA   - Total nuclear charge
  QA   - Mulliken gross atomic charge
  VA   - Mayer's total valence
  BVA  - Mayer's bonded valence
  FA   - Mayer's free valence

  ATOM       NA         ZA         QA         VA         BVA        FA
  0 V     22.1896    23.0000     0.8104     4.9919     2.0746     2.9173
  1 O      8.8104     8.0000    -0.8104     2.2007     2.0746     0.1262

  Mayer bond orders larger than 0.100000
B(  0-V ,  1-O ) :   2.0746 

-------
TIMINGS
-------

Total SCF time: 0 days 0 hours 0 min 3 sec 

Total time                  ....       3.376 sec
Sum of individual times     ....       3.261 sec  ( 96.6%)

Fock matrix formation       ....       2.910 sec  ( 86.2%)
  XC integration            ....       0.367 sec  ( 12.6% of F)
    Basis function eval.    ....       0.036 sec  (  9.8% of XC)
    Density eval.           ....       0.037 sec  ( 10.0% of XC)
    XC-Functional eval.     ....       0.020 sec  (  5.3% of XC)
    XC-Potential eval.      ....       0.082 sec  ( 22.3% of XC)
Diagonalization             ....       0.061 sec  (  1.8%)
Density matrix formation    ....       0.010 sec  (  0.3%)
Population analysis         ....       0.005 sec  (  0.2%)
Initial guess               ....       0.084 sec  (  2.5%)
Orbital Transformation      ....       0.000 sec  (  0.0%)
Orbital Orthonormalization  ....       0.000 sec  (  0.0%)
DIIS solution               ....       0.026 sec  (  0.8%)
Grid generation             ....       0.164 sec  (  4.9%)


           ************************************************************
           *        Program running with 24 parallel MPI-processes    *
           *              working on a common directory               *
           ************************************************************

------------------------------------------------------------------------------
                                ORCA  MP2 
------------------------------------------------------------------------------

Freezing NCore=12 chemical core electrons

-------------
RI-MP2 ENERGY
-------------
Dimension of the basis                    ...  107
Memory devoted to MP2                     ... 5000 MB   
Data format for buffers                   ... DOUBLE
Compression type for matrix containers    ... UNCOMPRESSED
Scaling for aa/bb pairs                   ...   4.000e-01
Scaling for ab pairs                      ...   4.700e-01
Overall scaling of the MP2 energy         ...   1.000e+00
Calculating two index integrals           ... done (    0.004 sec)
Cholesky decomposition of V**-1           ... done (    0.009 sec)

-----------------
RI-TRANSFORMATION (AUX index driven)
-----------------

Dimension of the orbital-basis         ... 107
Dimension of the aux-basis             ... 317
Transformation of internal/external MOs...    6-  16 to   17- 106
Number Format for Storage              ... Double (8 Byte)
Integral mode                          ... Direct

First Phase: integral generation and transformation of MO indices
  Aux angular momentum 0               ... done (    0.000 sec)
  Aux angular momentum 1               ... done (    0.001 sec)
  Aux angular momentum 2               ... done (    0.001 sec)
  Aux angular momentum 3               ... done (    0.001 sec)
  Aux angular momentum 4               ... done (    0.002 sec)
  Aux angular momentum 5               ... done (    0.003 sec)
  Aux angular momentum 6               ... done (    0.005 sec)
Closing buffer VIA ( 0.00 GB; CompressionRatio= 1.00)
  Phase 1 completed in     0.088 sec
Second Phase: sorting and transformation of aux index

IA-Transformation
Memory available                       ... 4999 MB 
Max. # MO pairs treated in a batch     ... 1    
# of internal orbitals                 ... 11
# batches for internal orbitals        ... 1
Closing buffer IAV ( 0.00 GB; CompressionRatio= 1.00)
(ia|v) transformation done in     0.002 sec

  Phase 2 completed in     0.006 sec
RI-Integral transformation completed in     0.095 sec

-----------------
RI-TRANSFORMATION (AUX index driven)
-----------------

Dimension of the orbital-basis         ... 107
Dimension of the aux-basis             ... 317
Transformation of internal/external MOs...    6-  13 to   14- 106
Number Format for Storage              ... Double (8 Byte)
Integral mode                          ... Direct

First Phase: integral generation and transformation of MO indices
  Aux angular momentum 0               ... done (    0.000 sec)
  Aux angular momentum 1               ... done (    0.001 sec)
  Aux angular momentum 2               ... done (    0.001 sec)
  Aux angular momentum 3               ... done (    0.001 sec)
  Aux angular momentum 4               ... done (    0.002 sec)
  Aux angular momentum 5               ... done (    0.003 sec)
  Aux angular momentum 6               ... done (    0.005 sec)
Closing buffer VIA ( 0.00 GB; CompressionRatio= 1.00)
  Phase 1 completed in     0.082 sec
Second Phase: sorting and transformation of aux index

IA-Transformation
Memory available                       ... 4999 MB 
Max. # MO pairs treated in a batch     ... 1    
# of internal orbitals                 ... 8
# batches for internal orbitals        ... 1
Closing buffer IAV ( 0.00 GB; CompressionRatio= 1.00)
(ia|v) transformation done in     0.002 sec

  Phase 2 completed in     0.006 sec
RI-Integral transformation completed in     0.089 sec
Opening buffers                              ... done

Starting loop over batches of integrals:

Operator 0  - window                       ... (  6- 16)x( 17-106)
Operator 0  - Memory available             ...  5000 MB
Operator 0  - Memory needed per MO         ...   0.2 MB
Operator 0  - Number of orbitals per batch ... 1
Operator 0  - Number of batches            ... 1

OPERATOR  0   PASS   0:  MOs     6 ...    6 +    7 ...    7 +    8 ...    8 +    9 ...    9
                            +   10 ...   10 +   11 ...   11 +   12 ...   12 +   13 ...   13
                            +   14 ...   14 +   15 ...   15 +   16 ...   16
  Reading integrals       ... ok

Operator 1  - window                       ... (  6- 13)x( 14-106)
Operator 1  - Memory available             ...  5000 MB
Operator 1  - Memory needed per MO         ...   0.2 MB
Operator 1  - Number of orbitals per batch ... 1
Operator 1  - Number of batches            ... 1

OPERATOR  1   PASS   0:  MOs     6 ...    6 +    7 ...    7 +    8 ...    8 +    9 ...    9
                            +   10 ...   10 +   11 ...   11 +   12 ...   12 +   13 ...   13
  Reading integrals       ... ok
Time spent in pair loops =     0.006 sec
Deleting buffer (Ka|jb)[aa] ...done
Deleting buffer (Ka|jb)[ab] ...done
Deleting buffer (Ka|jb)[ba] ...done
Deleting buffer (Ka|jb)[bb] ...done

Spin-scaled correlation energy components}
 E2 and T2 for alpha/alpha pairs :     -0.073209961 Eh      0.000000000
 E2 and T2 for beta/beta   pairs :     -0.033915927 Eh      0.000000000
 E2 and T2 for alpha/beta  pairs :     -0.246731295 Eh      0.000000000


-----------------------------------------------
 RI-MP2 CORRELATION ENERGY:     -0.353857183 Eh
-----------------------------------------------


-------
TIMINGS
-------

Total time                :    0.236 sec
Integral trafo            :    0.216 sec ( 91.3%)
I/O of integrals          :    0.000 sec (  0.1%)
K(i,j) Operators          :    0.003 sec (  1.1%)
T(i,j) pair energies      :    0.000 sec (  0.1%)
V-calculation             :    0.004 sec (  1.5%)
V**(-1/2)                 :    0.009 sec (  3.8%)
Gamma(ia|P)               :    0.000 sec (  0.0%)
Gamma-Trafo               :    0.000 sec (  0.0%)
D(virtual)                :    0.000 sec (  0.0%)
D(internal)               :    0.000 sec (  0.0%)
W(virtual)                :    0.000 sec (  0.0%)
W(internal)               :    0.000 sec (  0.0%)
L(virtual)                :    0.000 sec (  0.0%)
L(internal)               :    0.000 sec (  0.0%)
G(D)                      :    0.000 sec (  0.0%)
G(Z)                      :    0.000 sec (  0.0%)
Z-Vector Solution         :    0.000 sec (  0.0%)
Z-Vector Solution         :    0.000 sec (  0.0%)
3-Index Derivative 
+ Separable RIJ part      :    0.000 sec (  0.0%)
2-Index Derivative 
+ Separable RIJ part      :    0.000 sec (  0.0%)
Separable Gradient (X)    :    0.000 sec (  0.0%)


---------------------------------------
MP2 TOTAL ENERGY:    -1018.854813451 Eh
---------------------------------------


-------------------------------------------------------------------------------
                          DFT DISPERSION CORRECTION                            
                                                                               
                              DFTD3 V3.1  Rev 1                                
                          USING Becke-Johnson damping                          
-------------------------------------------------------------------------------
The DSD-BLYP/2013 functional is recognized
Active option DFTDOPT                   ...         4   

molecular C6(AA) [au] = 648.885312 


            DFT-D V3
 parameters
 s6 scaling factor         :     0.5700 
 a1 scaling factor         :     0.0000 
 s8 scaling factor         :     0.0000 
 a2 scaling factor         :     5.4000 
 ad hoc parameters k1-k3   :    16.0000     1.3333    -4.0000 

 Edisp/kcal,au: -0.934136050555  -0.001488640394 
 E6   /kcal   :  -0.934136051 
 E8   /kcal   :  -0.000000000 
 % E8         :   0.000000000 

-------------------------   ----------------
Dispersion correction           -0.001488640
-------------------------   ----------------


-------------------------   --------------------
FINAL SINGLE POINT ENERGY     -1018.856302091307
-------------------------   --------------------


                            ***************************************
                            *     ORCA property calculations      *
                            ***************************************


  WARNING: The energy has been calculated at the MP2 level but the densities
           used in the property calculations are still SCF densities
           MP2 response densities have not been calculated 
           use %mp2 Density relaxed end
           or  %mp2 Density unrelaxed end

                                    ---------------------
                                    Active property flags
                                    ---------------------
   (+) Dipole Moment


------------------------------------------------------------------------------
                       ORCA ELECTRIC PROPERTIES CALCULATION
------------------------------------------------------------------------------

Dipole Moment Calculation                       ... on
Quadrupole Moment Calculation                   ... off
Polarizability Calculation                      ... off
GBWName                                         ... TMD16_VO.gbw
Electron density file                           ... TMD16_VO.scfp
The origin for moment calculation is the CENTER OF MASS  = ( 0.000000,  0.000000  0.057616)

-------------
DIPOLE MOMENT
-------------
                                X             Y             Z
Electronic contribution:     -0.00000       0.00000       3.43207
Nuclear contribution   :      0.00000       0.00000      -1.78611
                        -----------------------------------------
Total Dipole Moment    :     -0.00000       0.00000       1.64596
                        -----------------------------------------
Magnitude (a.u.)       :      1.64596
Magnitude (Debye)      :      4.18369



--------------------
Rotational spectrum 
--------------------
 
Rotational constants in cm-1:     0.000000     0.540859     0.540859 
Rotational constants in MHz :     0.000000 16214.556702 16214.556702 

 Dipole components along the rotational axes: 
x,y,z [a.u.] :     1.645956     0.000000    -0.000000 
x,y,z [Debye]:     4.183688     0.000000    -0.000000 

 

Timings for individual modules:

Sum of individual times         ...        5.064 sec (=   0.084 min)
GTO integral calculation        ...        0.609 sec (=   0.010 min)  12.0 %
SCF iterations                  ...        3.712 sec (=   0.062 min)  73.3 %
MP2 module                      ...        0.743 sec (=   0.012 min)  14.7 %
                             ****ORCA TERMINATED NORMALLY****
TOTAL RUN TIME: 0 days 0 hours 0 minutes 5 seconds 656 msec
