
                                 *****************
                                 * O   R   C   A *
                                 *****************

           --- An Ab Initio, DFT and Semiempirical electronic structure package ---

                  #######################################################
                  #                        -***-                        #
                  #          Department of theory and spectroscopy      #
                  #               Directorship: Frank Neese             #
                  #        Max Planck Institute fuer Kohlenforschung    #
                  #                Kaiser Wilhelm Platz 1               #
                  #                 D-45470 Muelheim/Ruhr               #
                  #                      Germany                        #
                  #                                                     #
                  #                  All rights reserved                #
                  #                        -***-                        #
                  #######################################################


                         Program Version 4.2.0 -  RELEASE  -


 With contributions from (in alphabetic order):
   Daniel Aravena         : Magnetic Suceptibility
   Michael Atanasov       : Ab Initio Ligand Field Theory (pilot matlab implementation)
   Alexander A. Auer      : GIAO ZORA, VPT2
   Ute Becker             : Parallelization
   Giovanni Bistoni       : ED, misc. LED, open-shell LED, HFLED
   Martin Brehm           : Molecular dynamics
   Dmytro Bykov           : SCF Hessian
   Vijay G. Chilkuri      : MRCI spin determinant printing, contributions to CSF-ICE
   Dipayan Datta          : RHF DLPNO-CCSD density
   Achintya Kumar Dutta   : EOM-CC, STEOM-CC
   Dmitry Ganyushin       : Spin-Orbit,Spin-Spin,Magnetic field MRCI
   Miquel Garcia          : C-PCM Hessian, Gaussian charge scheme
   Yang Guo               : DLPNO-NEVPT2, CIM, IAO-localization
   Andreas Hansen         : Spin unrestricted coupled pair/coupled cluster methods
   Benjamin Helmich-Paris : CASSCF linear response (MC-RPA)
   Lee Huntington         : MR-EOM, pCC
   Robert Izsak           : Overlap fitted RIJCOSX, COSX-SCS-MP3, EOM
   Christian Kollmar      : KDIIS, OOCD, Brueckner-CCSD(T), CCSD density
   Simone Kossmann        : Meta GGA functionals, TD-DFT gradient, OOMP2, MP2 Hessian
   Martin Krupicka        : AUTO-CI
   Lucas Lang             : DCDCAS
   Dagmar Lenk            : GEPOL surface, SMD
   Dimitrios Liakos       : Extrapolation schemes; Compound Job, initial MDCI parallelization
   Dimitrios Manganas     : Further ROCIS development; embedding schemes
   Dimitrios Pantazis     : SARC Basis sets
   Taras Petrenko         : DFT Hessian,TD-DFT gradient, ASA, ECA, R-Raman, ABS, FL, XAS/XES, NRVS
   Peter Pinski           : DLPNO-MP2, DLPNO-MP2 Gradient
   Christoph Reimann      : Effective Core Potentials
   Marius Retegan         : Local ZFS, SOC
   Christoph Riplinger    : Optimizer, TS searches, QM/MM, DLPNO-CCSD(T), (RO)-DLPNO pert. Triples
   Tobias Risthaus        : Range-separated hybrids, TD-DFT gradient, RPA, STAB
   Michael Roemelt        : Original ROCIS implementation
   Masaaki Saitow         : Open-shell DLPNO-CCSD energy and density
   Barbara Sandhoefer     : DKH picture change effects
   Avijit Sen             : IP-ROCIS
   Kantharuban Sivalingam : CASSCF convergence, NEVPT2, FIC-MRCI
   Bernardo de Souza      : ESD, SOC TD-DFT
   Georgi Stoychev        : AutoAux, RI-MP2 NMR
   Willem Van den Heuvel  : Paramagnetic NMR
   Boris Wezisla          : Elementary symmetry handling
   Frank Wennmohs         : Technical directorship


 We gratefully acknowledge several colleagues who have allowed us to
 interface, adapt or use parts of their codes:
   Stefan Grimme, W. Hujo, H. Kruse,             : VdW corrections, initial TS optimization,
                  C. Bannwarth                     DFT functionals, gCP, sTDA/sTD-DF
   Ed Valeev, F. Pavosevic, A. Kumar             : LibInt (2-el integral package), F12 methods
   Garnet Chan, S. Sharma, J. Yang, R. Olivares  : DMRG
   Ulf Ekstrom                                   : XCFun DFT Library
   Mihaly Kallay                                 : mrcc  (arbitrary order and MRCC methods)
   Andreas Klamt, Michael Diedenhofen            : otool_cosmo (COSMO solvation model)
   Jiri Pittner, Ondrej Demel                    : Mk-CCSD
   Frank Weinhold                                : gennbo (NPA and NBO analysis)
   Christopher J. Cramer and Donald G. Truhlar   : smd solvation model
   Lars Goerigk                                  : TD-DFT with DH, B97 family of functionals
   V. Asgeirsson, H. Jonsson                     : NEB implementation
   FAccTs GmbH                                   : IRC, NEB, NEB-TS, Multilevel, MM, QM/MM, CI optimization
   S Lehtola, MJT Oliveira, MAL Marques          : LibXC Library


 Your calculation uses the libint2 library for the computation of 2-el integrals
 For citations please refer to: http://libint.valeyev.net

 Your ORCA version has been built with support for libXC version: 4.2.3
 For citations please refer to: https://tddft.org/programs/libxc/

 This ORCA versions uses:
   CBLAS   interface :  Fast vector & matrix operations
   LAPACKE interface :  Fast linear algebra routines
   SCALAPACK package :  Parallel linear algebra routines


Your calculation utilizes the atom-pairwise dispersion correction
with the Becke-Johnson damping scheme (D3BJ)
Cite in your paper:
S.Grimme, S.Ehrlich, L.Goerigk, J Comput Chem, (2011), 32, 1456–1465 
S.Grimme, J.Antony, S.Ehrlich and H.Krieg, J.Chem.Phys., 132, (2010), 154104 
   

----- Orbital basis set information -----
Your calculation utilizes the basis: def2-TZVPPD
   F. Weigend and R. Ahlrichs, Phys. Chem. Chem. Phys. 7, 3297 (2005).
   D. Rappoport and F. Furche, J. Chem. Phys. 133 134105 (2010).

----- AuxC basis set information -----
Your calculation utilizes the auxiliary basis: def2-TZVPPD/C
   A. Hellweg, C. Hattig, S. Hofener and W. Klopper, Theor. Chem. Acc. 117, 587 (2007).

----- AuxJK basis set information -----
Your calculation utilizes the auxiliary basis: def2/JK
   H-Ba, Hf-Rn: F. Weigend, J. Comput. Chem. 29, 167 (2008).

================================================================================
                                        WARNINGS
                       Please study these warnings very carefully!
================================================================================


WARNING: your system is open-shell and RHF/RKS was chosen
  ===> : WILL SWITCH to UHF/UKS


WARNING: No MP2 level density has been requested!
         To caclulate MP2 level properties use
         %mp2 Density relaxed end
         or
         %mp2 Density unrelaxed end
         Otherwise for double-hybrid DFT only the energy is correct!

WARNING: There are different parametrizations of Gershom Martin's DSD-DFs
         for use with and without D3(BJ)!
         You are using the D3(BJ) parametrized version,
         consistent with the 2013 article (S. Kozuch and J. M. L. Martin, JCC 2013, 34, 2327)

WARNING: The frozen-core approximation is turned on by default for 
         the MP2 part of double-hybrid DFT.

INFO   : the flag for use of LIBINT has been found!

================================================================================
                                       INPUT FILE
================================================================================
NAME = TMD20_FeS.in
|  1> #
|  2> # TMD20_FeS ri-DSD-BLYP/2013-D3BJ/Def2-TZVPPD
|  3> #
|  4> ! rijk ri-dsd-blyp/2013 d3bj def2-tzvppd def2/jk def2-tzvppd/c grid4 nofinalgrid
|  5> 
|  6> *xyz 0 5
|  7> Fe       0.000000    0.000000    0.769524 
|  8> S        0.000000    0.000000   -1.250476 
|  9> *
| 10> 
| 11> %maxcore 5000
| 12> 
| 13> %pal
| 14> nprocs = 24
| 15> end
| 16> 
| 17> 
| 18>                          ****END OF INPUT****
================================================================================

                       ****************************
                       * Single Point Calculation *
                       ****************************

---------------------------------
CARTESIAN COORDINATES (ANGSTROEM)
---------------------------------
  Fe     0.000000    0.000000    0.769524
  S      0.000000    0.000000   -1.250476

----------------------------
CARTESIAN COORDINATES (A.U.)
----------------------------
  NO LB      ZA    FRAG     MASS         X           Y           Z
   0 Fe   26.0000    0    55.850    0.000000    0.000000    1.454190
   1 S    16.0000    0    32.060    0.000000    0.000000   -2.363057

--------------------------------
INTERNAL COORDINATES (ANGSTROEM)
--------------------------------
 Fe     0   0   0     0.000000000000     0.00000000     0.00000000
 S      1   0   0     2.020000000000     0.00000000     0.00000000

---------------------------
INTERNAL COORDINATES (A.U.)
---------------------------
 Fe     0   0   0     0.000000000000     0.00000000     0.00000000
 S      1   0   0     3.817246790521     0.00000000     0.00000000

---------------------
BASIS SET INFORMATION
---------------------
There are 2 groups of distinct atoms

 Group   1 Type Fe  : 17s13p7d2f1g contracted to 6s6p4d2f1g pattern {842111/631111/4111/11/1}
 Group   2 Type S   : 15s10p4d1f contracted to 6s6p4d1f pattern {732111/511111/1111/1}

Atom   0Fe   basis set group =>   1
Atom   1S    basis set group =>   2
---------------------------------
AUXILIARY/C BASIS SET INFORMATION
---------------------------------
There are 2 groups of distinct atoms

 Group   1 Type Fe  : 10s10p9d7f5g3h1i contracted to 10s10p9d7f5g3h1i pattern {1111111111/1111111111/111111111/1111111/11111/111/1}
 Group   2 Type S   : 12s9p8d6f2g contracted to 12s9p8d6f2g pattern {111111111111/111111111/11111111/111111/11}

Atom   0Fe   basis set group =>   1
Atom   1S    basis set group =>   2
----------------------------------
AUXILIARY/JK BASIS SET INFORMATION
----------------------------------
There are 2 groups of distinct atoms

 Group   1 Type Fe  : 19s14p12d10f7g3h1i contracted to 16s13p11d9f5g3h1i pattern {4111111111111111/2111111111111/21111111111/211111111/31111/111/1}
 Group   2 Type S   : 16s12p10d4f1g contracted to 13s11p9d4f1g pattern {4111111111111/21111111111/211111111/1111/1}

Atom   0Fe   basis set group =>   1
Atom   1S    basis set group =>   2


           ************************************************************
           *        Program running with 24 parallel MPI-processes    *
           *              working on a common directory               *
           ************************************************************
------------------------------------------------------------------------------
                           ORCA GTO INTEGRAL CALCULATION
                           -- RI-GTO INTEGRALS CHOSEN --
------------------------------------------------------------------------------

                         BASIS SET STATISTICS AND STARTUP INFO

Gaussian basis set:
 # of primitive gaussian shells          ...   70
 # of primitive gaussian functions       ...  186
 # of contracted shells                  ...   36
 # of contracted basis functions         ...  118
 Highest angular momentum                ...    4
 Maximum contraction depth               ...    8
Auxiliary gaussian basis set:
 # of primitive gaussian shells          ...  109
 # of primitive gaussian functions       ...  439
 # of contracted shells                  ...   96
 # of contracted aux-basis functions     ...  392
 Highest angular momentum                ...    6
 Maximum contraction depth               ...    4
Ratio of auxiliary to basis functions    ...  3.32
Integral package used                  ... LIBINT
 One Electron integrals                  ... done
 Ordering auxiliary basis shells         ... done
 Integral threshhold             Thresh  ...  1.000e-10
 Primitive cut-off               TCut    ...  1.000e-11
 Pre-screening matrix                    ... done
 Shell pair data                         ... 
 Ordering of the shell pairs             ... done (   0.000 sec) 651 of 666 pairs
 Determination of significant pairs      ... done (   0.000 sec)
 Creation of shell pair data             ... done (   0.000 sec)
 Storage of shell pair data              ... done (   0.032 sec)
 Shell pair data done in (   0.032 sec)
 Computing two index integrals           ... done
 Cholesky decomposition of the V-matrix  ... done


Timings:
 Total evaluation time                   ...   0.208 sec (  0.003 min)
 One electron matrix time                ...   0.020 sec (  0.000 min) =  9.5%
 Schwartz matrix evaluation time         ...   0.106 sec (  0.002 min) = 50.9%
 Two index repulsion integral time       ...   0.018 sec (  0.000 min) =  8.7%
 Cholesky decomposition of V             ...   0.002 sec (  0.000 min) =  1.2%
 Three index repulsion integral time     ...   0.000 sec (  0.000 min) =  0.0%



           ************************************************************
           *        Program running with 24 parallel MPI-processes    *
           *              working on a common directory               *
           ************************************************************
-------------------------------------------------------------------------------
                                 ORCA SCF
-------------------------------------------------------------------------------

------------
SCF SETTINGS
------------
Hamiltonian:
 Density Functional     Method          .... DFT(GTOs)
 Exchange Functional    Exchange        .... B88
   X-Alpha parameter    XAlpha          ....  0.666667
   Becke's b parameter  XBeta           ....  0.004200
 Correlation Functional Correlation     .... LYP
 LDA part of GGA corr.  LDAOpt          .... VWN-5
 Gradients option       PostSCFGGA      .... off
 Hybrid DFT is turned on
   Fraction HF Exchange ScalHFX         ....  0.710000
   Scaling of DF-GGA-X  ScalDFX         ....  0.290000
   Scaling of DF-GGA-C  ScalDFC         ....  0.540000
   Scaling of DF-LDA-C  ScalLDAC        ....  0.540000
   Perturbative correction              ....  1.000000
   Density functional embedding theory  .... OFF
 RI-approximation to the Coulomb term is turned on
   Number of auxiliary basis functions  .... 392
   RI-JK (J+K treated both via RI)      .... on


General Settings:
 Integral files         IntName         .... TMD20_FeS
 Hartree-Fock type      HFTyp           .... UHF
 Total Charge           Charge          ....    0
 Multiplicity           Mult            ....    5
 Number of Electrons    NEL             ....   42
 Basis Dimension        Dim             ....  118
 Nuclear Repulsion      ENuc            ....    108.9790686400 Eh

Convergence Acceleration:
 DIIS                   CNVDIIS         .... on
   Start iteration      DIISMaxIt       ....    12
   Startup error        DIISStart       ....  0.200000
   # of expansion vecs  DIISMaxEq       ....     5
   Bias factor          DIISBfac        ....   1.050
   Max. coefficient     DIISMaxC        ....  10.000
 Newton-Raphson         CNVNR           .... off
 SOSCF                  CNVSOSCF        .... off
 Level Shifting         CNVShift        .... on
   Level shift para.    LevelShift      ....    0.2500
   Turn off err/grad.   ShiftErr        ....    0.0010
 Zerner damping         CNVZerner       .... off
 Static damping         CNVDamp         .... on
   Fraction old density DampFac         ....    0.7000
   Max. Damping (<1)    DampMax         ....    0.9800
   Min. Damping (>=0)   DampMin         ....    0.0000
   Turn off err/grad.   DampErr         ....    0.1000
 Fernandez-Rico         CNVRico         .... off

SCF Procedure:
 Maximum # iterations   MaxIter         ....   125
 SCF integral mode      SCFMode         .... Direct
   Integral package                     .... LIBINT
 Reset frequency        DirectResetFreq ....    20
 Integral Threshold     Thresh          ....  1.000e-10 Eh
 Primitive CutOff       TCut            ....  1.000e-11 Eh

Convergence Tolerance:
 Convergence Check Mode ConvCheckMode   .... Total+1el-Energy
 Convergence forced     ConvForced      .... 0
 Energy Change          TolE            ....  1.000e-06 Eh
 1-El. energy change                    ....  1.000e-03 Eh
 DIIS Error             TolErr          ....  1.000e-06


Diagonalization of the overlap matrix:
Smallest eigenvalue                        ... 1.056e-03
Time for diagonalization                   ...    0.004 sec
Threshold for overlap eigenvalues          ... 1.000e-08
Number of eigenvalues below threshold      ... 0
Time for construction of square roots      ...    0.002 sec
Total time needed                          ...    0.006 sec

-------------------
DFT GRID GENERATION
-------------------

General Integration Accuracy     IntAcc      ...  4.670
Radial Grid Type                 RadialGrid  ... Gauss-Chebyshev
Angular Grid (max. acc.)         AngularGrid ... Lebedev-302
Angular grid pruning method      GridPruning ... 3 (G Style)
Weight generation scheme         WeightScheme... Becke
Basis function cutoff            BFCut       ...    1.0000e-10
Integration weight cutoff        WCut        ...    1.0000e-14
Grids for H and He will be reduced by one unit

# of grid points (after initial pruning)     ...  16486 (   0.0 sec)
# of grid points (after weights+screening)   ...  16457 (   0.0 sec)
nearest neighbour list constructed           ...    0.0 sec
Grid point re-assignment to atoms done       ...    0.0 sec
Grid point division into batches done        ...    0.1 sec
Reduced shell lists constructed in    0.1 sec

Total number of grid points                  ...    16457
Total number of batches                      ...      258
Average number of points per batch           ...       63
Average number of grid points per atom       ...     8228
Average number of shells per batch           ...     7.08 (19.68%)
Average number of basis functions per batch  ...    20.25 (17.16%)
Average number of large shells per batch     ...     4.58 (64.71%)
Average number of large basis fcns per batch ...    11.92 (58.85%)
Average number of aux-shells per batch       ...     7.08 ( 7.38%)
Average number of aux functions per batch    ...    20.25 ( 5.17%)
Maximum spatial batch extension              ...  24.49, 24.19, 18.13 au
Average spatial batch extension              ...   0.84,  0.83,  0.65 au

Time for grid setup =    0.165 sec

------------------------------
INITIAL GUESS: MODEL POTENTIAL
------------------------------
Loading Hartree-Fock densities                     ... done
Calculating cut-offs                               ... done
Setting up the integral package                    ... done
Initializing the effective Hamiltonian             ... done
Starting the Coulomb interaction                   ... done (   0.0 sec)
Reading the grid                                   ... done
Mapping shells                                     ... done
Starting the XC term evaluation                    ... done (   0.0 sec)
  promolecular density results
     # of electrons  =     42.000003885
     EX              =    -79.371525926
     EC              =     -0.255769384
     EX+EC           =    -79.627295310
Transforming the Hamiltonian                       ... done (   0.0 sec)
Diagonalizing the Hamiltonian                      ... done (   0.0 sec)
Back transforming the eigenvectors                 ... done (   0.0 sec)
Now organizing SCF variables                       ... done
                      ------------------
                      INITIAL GUESS DONE (   0.3 sec)
                      ------------------
--------------
SCF ITERATIONS
--------------
ITER       Energy         Delta-E        Max-DP      RMS-DP      [F,P]     Damp
  0  -1660.8425605433   0.000000000000 0.03662310  0.00057194  0.1197308 0.7000
  1  -1660.8704247250  -0.027864181687 0.03389120  0.00057753  0.1044779 0.7000
                               ***Turning on DIIS***
  2  -1660.8771829185  -0.006758193429 0.06789647  0.00142962  0.0643377 0.0000
  3  -1660.9469632218  -0.069780303392 0.03553280  0.00061277  0.0489150 0.0000
  4  -1660.9629730596  -0.016009837769 0.03177950  0.00041105  0.0207704 0.0000
  5  -1660.9682288358  -0.005255776161 0.02072759  0.00027883  0.0167638 0.0000
  6  -1660.9715425070  -0.003313671232 0.02742530  0.00029786  0.0111024 0.0000
  7  -1660.9738342960  -0.002291788954 0.03146557  0.00031337  0.0071009 0.0000
  8  -1660.9753843207  -0.001550024748 0.01872960  0.00018893  0.0047846 0.0000
  9  -1660.9760533523  -0.000669031566 0.01862806  0.00017991  0.0032730 0.0000
 10  -1660.9764943645  -0.000441012177 0.01450020  0.00014416  0.0021633 0.0000
 11  -1660.9767692256  -0.000274861129 0.01311618  0.00013171  0.0016851 0.0000
 12  -1660.9769646523  -0.000195426730 0.00877831  0.00009211  0.0013310 0.0000
 13  -1660.9770776320  -0.000112979679 0.00917297  0.00009686  0.0010219 0.0000
 14  -1660.9771705229  -0.000092890925 0.01184211  0.00014448  0.0009569 0.0000
 15  -1660.9772746945  -0.000104171609 0.00224116  0.00003076  0.0007928 0.0000
 16  -1660.9772925509  -0.000017856386 0.00611120  0.00007423  0.0004340 0.0000
 17  -1660.9773204036  -0.000027852668 0.00607055  0.00007127  0.0002924 0.0000
 18  -1660.9773327713  -0.000012367702 0.00112969  0.00001237  0.0000991 0.0000
 19  -1660.9773338501  -0.000001078851 0.00132635  0.00001576  0.0001190 0.0000
 20  -1660.9773341598  -0.000000309635 0.00055625  0.00000684  0.0000499 0.0000
                 **** Energy Check signals convergence ****

               *****************************************************
               *                     SUCCESS                       *
               *           SCF CONVERGED AFTER  21 CYCLES          *
               *****************************************************


----------------
TOTAL SCF ENERGY
----------------

Total Energy       :        -1660.97733436 Eh          -45197.49106 eV

Components:
Nuclear Repulsion  :          108.97906864 Eh            2965.47122 eV
Electronic Energy  :        -1769.95640300 Eh          -48162.96228 eV
One Electron Energy:        -2513.05654652 Eh          -68383.74519 eV
Two Electron Energy:          743.10014352 Eh           20220.78291 eV

Virial components:
Potential Energy   :        -3320.83831500 Eh          -90364.60460 eV
Kinetic Energy     :         1659.86098064 Eh           45167.11353 eV
Virial Ratio       :            2.00067256


DFT components:
N(Alpha)           :       23.000004714979 electrons
N(Beta)            :       19.000003701249 electrons
N(Total)           :       42.000008416228 electrons
E(X)               :      -23.098773548027 Eh       
E(C)               :       -0.985233700844 Eh       
E(XC)              :      -24.084007248871 Eh       
DFET-embed. en.    :        0.000000000000 Eh       

---------------
SCF CONVERGENCE
---------------

  Last Energy change         ...   -1.9719e-07  Tolerance :   1.0000e-06
  Last MAX-Density change    ...    5.0954e-05  Tolerance :   1.0000e-05
  Last RMS-Density change    ...    1.3637e-06  Tolerance :   1.0000e-06
  Last DIIS Error            ...    3.1320e-05  Tolerance :   1.0000e-06

             **** THE GBW FILE WAS UPDATED (TMD20_FeS.gbw) ****
             **** DENSITY FILE WAS UPDATED (TMD20_FeS.scfp) ****
             **** ENERGY FILE WAS UPDATED (TMD20_FeS.en.tmp) ****
----------------------
UHF SPIN CONTAMINATION
----------------------

Warning: in a DFT calculation there is little theoretical justification to 
         calculate <S**2> as in Hartree-Fock theory. We will do it anyways
         but you should keep in mind that the values have only limited relevance

Expectation value of <S**2>     :     6.198334
Ideal value S*(S+1) for S=2.0   :     6.000000
Deviation                       :     0.198334

             **** THE GBW FILE WAS UPDATED (TMD20_FeS.gbw) ****
             **** DENSITY FILE WAS UPDATED (TMD20_FeS.scfp) ****
----------------
ORBITAL ENERGIES
----------------
                 SPIN UP ORBITALS
  NO   OCC          E(Eh)            E(eV) 
   0   1.0000    -259.520614     -7061.9149 
   1   1.0000     -90.777137     -2470.1715 
   2   1.0000     -31.336302      -852.7041 
   3   1.0000     -26.969251      -733.8706 
   4   1.0000     -26.940303      -733.0829 
   5   1.0000     -26.940303      -733.0829 
   6   1.0000      -8.523933      -231.9480 
   7   1.0000      -6.305221      -171.5738 
   8   1.0000      -6.305221      -171.5738 
   9   1.0000      -6.301663      -171.4770 
  10   1.0000      -4.089783      -111.2887 
  11   1.0000      -2.803691       -76.2923 
  12   1.0000      -2.736792       -74.4719 
  13   1.0000      -2.736792       -74.4719 
  14   1.0000      -0.766367       -20.8539 
  15   1.0000      -0.617412       -16.8006 
  16   1.0000      -0.617412       -16.8006 
  17   1.0000      -0.599434       -16.3114 
  18   1.0000      -0.586672       -15.9642 
  19   1.0000      -0.542317       -14.7572 
  20   1.0000      -0.308524        -8.3954 
  21   1.0000      -0.282993        -7.7006 
  22   1.0000      -0.282993        -7.7006 
  23   0.0000      -0.078349        -2.1320 
  24   0.0000       0.015250         0.4150 
  25   0.0000       0.015250         0.4150 
  26   0.0000       0.048252         1.3130 
  27   0.0000       0.085758         2.3336 
  28   0.0000       0.096731         2.6322 
  29   0.0000       0.096731         2.6322 
  30   0.0000       0.123141         3.3508 
  31   0.0000       0.138297         3.7633 
  32   0.0000       0.138297         3.7633 
  33   0.0000       0.194742         5.2992 
  34   0.0000       0.196441         5.3454 
  35   0.0000       0.206889         5.6297 
  36   0.0000       0.233508         6.3541 
  37   0.0000       0.259440         7.0597 
  38   0.0000       0.259440         7.0597 
  39   0.0000       0.283591         7.7169 
  40   0.0000       0.284224         7.7341 
  41   0.0000       0.330374         8.9899 
  42   0.0000       0.345039         9.3890 
  43   0.0000       0.345039         9.3890 
  44   0.0000       0.430130        11.7044 
  45   0.0000       0.551843        15.0164 
  46   0.0000       0.551843        15.0164 
  47   0.0000       0.583436        15.8761 
  48   0.0000       0.612546        16.6682 
  49   0.0000       0.612546        16.6682 
  50   0.0000       0.654645        17.8138 
  51   0.0000       0.655087        17.8258 
  52   0.0000       0.673004        18.3134 
  53   0.0000       0.686759        18.6877 
  54   0.0000       0.686759        18.6877 
  55   0.0000       0.796136        21.6640 
  56   0.0000       0.956214        26.0199 
  57   0.0000       0.969204        26.3734 
  58   0.0000       1.066969        29.0337 
  59   0.0000       1.066969        29.0337 
  60   0.0000       1.086366        29.5615 
  61   0.0000       1.286927        35.0191 
  62   0.0000       1.803636        49.0794 
  63   0.0000       1.825121        49.6641 
  64   0.0000       1.825670        49.6790 
  65   0.0000       1.842745        50.1437 
  66   0.0000       1.842745        50.1437 
  67   0.0000       1.878456        51.1154 
  68   0.0000       1.879394        51.1409 
  69   0.0000       1.902396        51.7668 
  70   0.0000       1.902396        51.7668 
  71   0.0000       1.925762        52.4026 
  72   0.0000       1.925762        52.4026 
  73   0.0000       2.106653        57.3249 
  74   0.0000       2.171158        59.0802 
  75   0.0000       2.171158        59.0802 
  76   0.0000       2.263990        61.6063 
  77   0.0000       2.424559        65.9756 
  78   0.0000       2.424559        65.9756 
  79   0.0000       2.459877        66.9367 
  80   0.0000       2.474855        67.3442 
  81   0.0000       2.544370        69.2358 
  82   0.0000       2.544370        69.2358 
  83   0.0000       2.654062        72.2207 
  84   0.0000       2.848812        77.5201 
  85   0.0000       2.848812        77.5201 
  86   0.0000       3.107709        84.5651 
  87   0.0000       3.325718        90.4974 
  88   0.0000       3.651660        99.3667 
  89   0.0000       3.681717       100.1846 
  90   0.0000       3.689982       100.4095 
  91   0.0000       3.689982       100.4095 
  92   0.0000       3.925293       106.8127 
  93   0.0000       7.166638       195.0141 
  94   0.0000       7.166641       195.0142 
  95   0.0000       7.196553       195.8282 
  96   0.0000       7.196553       195.8282 
  97   0.0000       7.257115       197.4761 
  98   0.0000       8.709960       237.0101 
  99   0.0000       8.719406       237.2671 
 100   0.0000       8.719406       237.2671 
 101   0.0000       8.733148       237.6410 
 102   0.0000       8.734670       237.6825 
 103   0.0000       8.742020       237.8825 
 104   0.0000       8.742020       237.8825 
 105   0.0000       8.763142       238.4572 
 106   0.0000       8.765808       238.5298 
 107   0.0000       9.398590       255.7486 
 108   0.0000       9.398590       255.7486 
 109   0.0000       9.437084       256.7961 
 110   0.0000       9.468333       257.6464 
 111   0.0000       9.485116       258.1031 
 112   0.0000       9.485116       258.1031 
 113   0.0000       9.567011       260.3316 
 114   0.0000       9.567011       260.3316 
 115   0.0000       9.606457       261.4050 
 116   0.0000       9.860289       268.3121 
 117   0.0000      19.067823       518.8619 

                 SPIN DOWN ORBITALS
  NO   OCC          E(Eh)            E(eV) 
   0   1.0000    -259.517382     -7061.8270 
   1   1.0000     -90.779549     -2470.2371 
   2   1.0000     -31.234865      -849.9439 
   3   1.0000     -26.859830      -730.8931 
   4   1.0000     -26.852703      -730.6992 
   5   1.0000     -26.852703      -730.6992 
   6   1.0000      -8.526060      -232.0059 
   7   1.0000      -6.314685      -171.8313 
   8   1.0000      -6.305040      -171.5689 
   9   1.0000      -6.305040      -171.5689 
  10   1.0000      -3.812808      -103.7518 
  11   1.0000      -2.445501       -66.5455 
  12   1.0000      -2.445501       -66.5455 
  13   1.0000      -2.422177       -65.9108 
  14   1.0000      -0.779519       -21.2118 
  15   1.0000      -0.428797       -11.6682 
  16   1.0000      -0.370934       -10.0936 
  17   1.0000      -0.299449        -8.1484 
  18   1.0000      -0.299449        -8.1484 
  19   0.0000      -0.063438        -1.7262 
  20   0.0000       0.018092         0.4923 
  21   0.0000       0.018092         0.4923 
  22   0.0000       0.021857         0.5948 
  23   0.0000       0.063703         1.7335 
  24   0.0000       0.083581         2.2744 
  25   0.0000       0.083581         2.2744 
  26   0.0000       0.096548         2.6272 
  27   0.0000       0.100325         2.7300 
  28   0.0000       0.100325         2.7300 
  29   0.0000       0.101587         2.7643 
  30   0.0000       0.159363         4.3365 
  31   0.0000       0.161710         4.4004 
  32   0.0000       0.161710         4.4004 
  33   0.0000       0.204753         5.5716 
  34   0.0000       0.215889         5.8746 
  35   0.0000       0.241559         6.5732 
  36   0.0000       0.251528         6.8444 
  37   0.0000       0.288397         7.8477 
  38   0.0000       0.296118         8.0578 
  39   0.0000       0.296118         8.0578 
  40   0.0000       0.307838         8.3767 
  41   0.0000       0.346190         9.4203 
  42   0.0000       0.346190         9.4203 
  43   0.0000       0.347149         9.4464 
  44   0.0000       0.438895        11.9430 
  45   0.0000       0.564415        15.3585 
  46   0.0000       0.564415        15.3585 
  47   0.0000       0.585196        15.9240 
  48   0.0000       0.620256        16.8780 
  49   0.0000       0.620256        16.8780 
  50   0.0000       0.659321        17.9410 
  51   0.0000       0.661656        18.0046 
  52   0.0000       0.686390        18.6776 
  53   0.0000       0.710176        19.3249 
  54   0.0000       0.710176        19.3249 
  55   0.0000       0.813554        22.1379 
  56   0.0000       1.003011        27.2933 
  57   0.0000       1.071774        29.1645 
  58   0.0000       1.118261        30.4294 
  59   0.0000       1.151104        31.3231 
  60   0.0000       1.151104        31.3231 
  61   0.0000       1.327804        36.1314 
  62   0.0000       1.798950        48.9519 
  63   0.0000       1.830244        49.8035 
  64   0.0000       1.830931        49.8222 
  65   0.0000       1.832434        49.8631 
  66   0.0000       1.832434        49.8631 
  67   0.0000       1.874689        51.0129 
  68   0.0000       1.876387        51.0591 
  69   0.0000       1.907855        51.9154 
  70   0.0000       1.907855        51.9154 
  71   0.0000       1.944585        52.9148 
  72   0.0000       1.944585        52.9148 
  73   0.0000       2.118805        57.6556 
  74   0.0000       2.175427        59.1964 
  75   0.0000       2.175427        59.1964 
  76   0.0000       2.272154        61.8285 
  77   0.0000       2.516752        68.4843 
  78   0.0000       2.516752        68.4843 
  79   0.0000       2.560985        69.6879 
  80   0.0000       2.588973        70.4495 
  81   0.0000       2.624817        71.4249 
  82   0.0000       2.624817        71.4249 
  83   0.0000       2.751354        74.8682 
  84   0.0000       2.934347        79.8476 
  85   0.0000       2.934347        79.8476 
  86   0.0000       3.196446        86.9797 
  87   0.0000       3.412593        92.8614 
  88   0.0000       3.742499       101.8386 
  89   0.0000       3.821131       103.9783 
  90   0.0000       3.845982       104.6545 
  91   0.0000       3.845982       104.6545 
  92   0.0000       4.052037       110.2615 
  93   0.0000       7.167653       195.0418 
  94   0.0000       7.167688       195.0427 
  95   0.0000       7.193029       195.7323 
  96   0.0000       7.193029       195.7323 
  97   0.0000       7.253436       197.3760 
  98   0.0000       8.840285       240.5564 
  99   0.0000       8.847096       240.7417 
 100   0.0000       8.847096       240.7417 
 101   0.0000       8.854507       240.9434 
 102   0.0000       8.856673       241.0023 
 103   0.0000       8.858118       241.0416 
 104   0.0000       8.859463       241.0782 
 105   0.0000       8.859463       241.0782 
 106   0.0000       8.869688       241.3565 
 107   0.0000       9.421092       256.3610 
 108   0.0000       9.421092       256.3610 
 109   0.0000       9.641024       262.3456 
 110   0.0000       9.645316       262.4624 
 111   0.0000       9.646633       262.4982 
 112   0.0000       9.646633       262.4982 
 113   0.0000       9.691907       263.7302 
 114   0.0000       9.771679       265.9009 
 115   0.0000       9.771679       265.9009 
 116   0.0000      10.029810       272.9250 
 117   0.0000      19.064792       518.7794 

                    ********************************
                    * MULLIKEN POPULATION ANALYSIS *
                    ********************************

--------------------------------------------
MULLIKEN ATOMIC CHARGES AND SPIN POPULATIONS
--------------------------------------------
   0 Fe:    0.567450    4.251420
   1 S :   -0.567450   -0.251420
Sum of atomic charges         :   -0.0000000
Sum of atomic spin populations:    4.0000000

-----------------------------------------------------
MULLIKEN REDUCED ORBITAL CHARGES AND SPIN POPULATIONS
-----------------------------------------------------
CHARGE
  0 Fes       :     6.826568  s :     6.826568
      pz      :     4.064470  p :    12.325193
      px      :     4.130362
      py      :     4.130362
      dz2     :     1.078129  d :     6.277196
      dxz     :     1.100131
      dyz     :     1.100131
      dx2y2   :     0.999719
      dxy     :     1.999086
      f0      :     0.001088  f :     0.003501
      f+1     :     0.001004
      f-1     :     0.001004
      f+2     :     0.000043
      f-2     :     0.000074
      f+3     :     0.000143
      f-3     :     0.000143
      g0      :     0.000027  g :     0.000093
      g+1     :     0.000017
      g-1     :     0.000017
      g+2     :     0.000004
      g-2     :     0.000010
      g+3     :     0.000002
      g-3     :     0.000002
      g+4     :     0.000015
      g-4     :     0.000000
  1 S s       :     5.880446  s :     5.880446
      pz      :     3.137509  p :    10.638140
      px      :     3.750315
      py      :     3.750315
      dz2     :     0.009559  d :     0.042923
      dxz     :     0.016257
      dyz     :     0.016257
      dx2y2   :     0.000187
      dxy     :     0.000663
      f0      :     0.002189  f :     0.005941
      f+1     :     0.001769
      f-1     :     0.001769
      f+2     :     0.000047
      f-2     :     0.000167
      f+3     :     0.000000
      f-3     :     0.000000

SPIN
  0 Fes       :     0.509089  s :     0.509089
      pz      :    -0.004656  p :     0.080840
      px      :     0.042748
      py      :     0.042748
      dz2     :     0.873082  d :     3.661928
      dxz     :     0.894436
      dyz     :     0.894436
      dx2y2   :     0.999719
      dxy     :     0.000256
      f0      :    -0.000260  f :    -0.000472
      f+1     :    -0.000009
      f-1     :    -0.000009
      f+2     :     0.000043
      f-2     :     0.000012
      f+3     :    -0.000125
      f-3     :    -0.000125
      g0      :     0.000007  g :     0.000035
      g+1     :     0.000007
      g-1     :     0.000007
      g+2     :     0.000004
      g-2     :     0.000010
      g+3     :     0.000001
      g-3     :     0.000001
      g+4     :    -0.000001
      g-4     :    -0.000000
  1 S s       :    -0.038046  s :    -0.038046
      pz      :    -0.337097  p :    -0.199785
      px      :     0.068656
      py      :     0.068656
      dz2     :    -0.002297  d :    -0.012670
      dxz     :    -0.005166
      dyz     :    -0.005166
      dx2y2   :     0.000187
      dxy     :    -0.000228
      f0      :     0.000179  f :    -0.000920
      f+1     :    -0.000548
      f-1     :    -0.000548
      f+2     :     0.000047
      f-2     :    -0.000050
      f+3     :    -0.000000
      f-3     :    -0.000000


                     *******************************
                     * LOEWDIN POPULATION ANALYSIS *
                     *******************************

-------------------------------------------
LOEWDIN ATOMIC CHARGES AND SPIN POPULATIONS
-------------------------------------------
   0 Fe:    0.257352    4.030713
   1 S :   -0.257352   -0.030713

----------------------------------------------------
LOEWDIN REDUCED ORBITAL CHARGES AND SPIN POPULATIONS
----------------------------------------------------
CHARGE
  0 Fes       :     6.500908  s :     6.500908
      pz      :     4.259289  p :    12.639889
      px      :     4.190300
      py      :     4.190300
      dz2     :     1.225118  d :     6.593141
      dxz     :     1.186403
      dyz     :     1.186403
      dx2y2   :     0.998825
      dxy     :     1.996391
      f0      :     0.003835  f :     0.008589
      f+1     :     0.002168
      f-1     :     0.002168
      f+2     :     0.000047
      f-2     :     0.000084
      f+3     :     0.000143
      f-3     :     0.000143
      g0      :     0.000043  g :     0.000122
      g+1     :     0.000023
      g-1     :     0.000023
      g+2     :     0.000003
      g-2     :     0.000010
      g+3     :     0.000002
      g-3     :     0.000002
      g+4     :     0.000015
      g-4     :     0.000000
  1 S s       :     5.559682  s :     5.559682
      pz      :     3.366615  p :    10.569906
      px      :     3.601645
      py      :     3.601645
      dz2     :     0.077063  d :     0.113465
      dxz     :     0.016256
      dyz     :     0.016256
      dx2y2   :     0.000927
      dxy     :     0.002963
      f0      :     0.007431  f :     0.014299
      f+1     :     0.003059
      f-1     :     0.003059
      f+2     :     0.000197
      f-2     :     0.000552
      f+3     :     0.000000
      f-3     :     0.000000

SPIN
  0 Fes       :     0.304070  s :     0.304070
      pz      :    -0.000734  p :     0.100651
      px      :     0.050693
      py      :     0.050693
      dz2     :     0.854370  d :     3.627032
      dxz     :     0.886517
      dyz     :     0.886517
      dx2y2   :     0.998825
      dxy     :     0.000803
      f0      :    -0.000964  f :    -0.001060
      f+1     :     0.000047
      f-1     :     0.000047
      f+2     :     0.000047
      f-2     :     0.000012
      f+3     :    -0.000125
      f-3     :    -0.000125
      g0      :    -0.000001  g :     0.000020
      g+1     :     0.000004
      g-1     :     0.000004
      g+2     :     0.000003
      g-2     :     0.000010
      g+3     :     0.000001
      g-3     :     0.000001
      g+4     :    -0.000001
      g-4     :    -0.000000
  1 S s       :     0.017846  s :     0.017846
      pz      :    -0.196892  p :    -0.072857
      px      :     0.062018
      py      :     0.062018
      dz2     :     0.020334  d :     0.019813
      dxz     :    -0.000360
      dyz     :    -0.000360
      dx2y2   :     0.000927
      dxy     :    -0.000727
      f0      :     0.001974  f :     0.004485
      f+1     :     0.001205
      f-1     :     0.001205
      f+2     :     0.000197
      f-2     :    -0.000097
      f+3     :    -0.000000
      f-3     :    -0.000000


                      *****************************
                      * MAYER POPULATION ANALYSIS *
                      *****************************

  NA   - Mulliken gross atomic population
  ZA   - Total nuclear charge
  QA   - Mulliken gross atomic charge
  VA   - Mayer's total valence
  BVA  - Mayer's bonded valence
  FA   - Mayer's free valence

  ATOM       NA         ZA         QA         VA         BVA        FA
  0 Fe    25.4326    26.0000     0.5674     5.6234     1.7286     3.8949
  1 S     16.5674    16.0000    -0.5674     1.8710     1.7286     0.1425

  Mayer bond orders larger than 0.100000
B(  0-Fe,  1-S ) :   1.7286 

-------
TIMINGS
-------

Total SCF time: 0 days 0 hours 0 min 3 sec 

Total time                  ....       3.951 sec
Sum of individual times     ....       3.827 sec  ( 96.9%)

Fock matrix formation       ....       3.440 sec  ( 87.1%)
  XC integration            ....       0.424 sec  ( 12.3% of F)
    Basis function eval.    ....       0.034 sec  (  8.0% of XC)
    Density eval.           ....       0.037 sec  (  8.6% of XC)
    XC-Functional eval.     ....       0.019 sec  (  4.6% of XC)
    XC-Potential eval.      ....       0.078 sec  ( 18.4% of XC)
Diagonalization             ....       0.076 sec  (  1.9%)
Density matrix formation    ....       0.012 sec  (  0.3%)
Population analysis         ....       0.006 sec  (  0.1%)
Initial guess               ....       0.095 sec  (  2.4%)
Orbital Transformation      ....       0.000 sec  (  0.0%)
Orbital Orthonormalization  ....       0.000 sec  (  0.0%)
DIIS solution               ....       0.033 sec  (  0.8%)
Grid generation             ....       0.165 sec  (  4.2%)


           ************************************************************
           *        Program running with 24 parallel MPI-processes    *
           *              working on a common directory               *
           ************************************************************

------------------------------------------------------------------------------
                                ORCA  MP2 
------------------------------------------------------------------------------

Freezing NCore=20 chemical core electrons

-------------
RI-MP2 ENERGY
-------------
Dimension of the basis                    ...  118
Memory devoted to MP2                     ... 5000 MB   
Data format for buffers                   ... DOUBLE
Compression type for matrix containers    ... UNCOMPRESSED
Scaling for aa/bb pairs                   ...   4.000e-01
Scaling for ab pairs                      ...   4.700e-01
Overall scaling of the MP2 energy         ...   1.000e+00
Calculating two index integrals           ... done (    0.006 sec)
Cholesky decomposition of V**-1           ... done (    0.009 sec)

-----------------
RI-TRANSFORMATION (AUX index driven)
-----------------

Dimension of the orbital-basis         ... 118
Dimension of the aux-basis             ... 364
Transformation of internal/external MOs...   10-  22 to   23- 117
Number Format for Storage              ... Double (8 Byte)
Integral mode                          ... Direct

First Phase: integral generation and transformation of MO indices
  Aux angular momentum 0               ... done (    0.000 sec)
  Aux angular momentum 1               ... done (    0.001 sec)
  Aux angular momentum 2               ... done (    0.001 sec)
  Aux angular momentum 3               ... done (    0.002 sec)
  Aux angular momentum 4               ... done (    0.002 sec)
  Aux angular momentum 5               ... done (    0.003 sec)
  Aux angular momentum 6               ... done (    0.005 sec)
Closing buffer VIA ( 0.00 GB; CompressionRatio= 1.00)
  Phase 1 completed in     0.084 sec
Second Phase: sorting and transformation of aux index

IA-Transformation
Memory available                       ... 4998 MB 
Max. # MO pairs treated in a batch     ... 1    
# of internal orbitals                 ... 13
# batches for internal orbitals        ... 1
Closing buffer IAV ( 0.00 GB; CompressionRatio= 1.00)
(ia|v) transformation done in     0.003 sec

  Phase 2 completed in     0.008 sec
RI-Integral transformation completed in     0.093 sec

-----------------
RI-TRANSFORMATION (AUX index driven)
-----------------

Dimension of the orbital-basis         ... 118
Dimension of the aux-basis             ... 364
Transformation of internal/external MOs...   10-  18 to   19- 117
Number Format for Storage              ... Double (8 Byte)
Integral mode                          ... Direct

First Phase: integral generation and transformation of MO indices
  Aux angular momentum 0               ... done (    0.000 sec)
  Aux angular momentum 1               ... done (    0.001 sec)
  Aux angular momentum 2               ... done (    0.001 sec)
  Aux angular momentum 3               ... done (    0.002 sec)
  Aux angular momentum 4               ... done (    0.002 sec)
  Aux angular momentum 5               ... done (    0.003 sec)
  Aux angular momentum 6               ... done (    0.005 sec)
Closing buffer VIA ( 0.00 GB; CompressionRatio= 1.00)
  Phase 1 completed in     0.084 sec
Second Phase: sorting and transformation of aux index

IA-Transformation
Memory available                       ... 4998 MB 
Max. # MO pairs treated in a batch     ... 1    
# of internal orbitals                 ... 9
# batches for internal orbitals        ... 1
Closing buffer IAV ( 0.00 GB; CompressionRatio= 1.00)
(ia|v) transformation done in     0.002 sec

  Phase 2 completed in     0.007 sec
RI-Integral transformation completed in     0.092 sec
Opening buffers                              ... done

Starting loop over batches of integrals:

Operator 0  - window                       ... ( 10- 22)x( 23-117)
Operator 0  - Memory available             ...  5000 MB
Operator 0  - Memory needed per MO         ...   0.3 MB
Operator 0  - Number of orbitals per batch ... 1
Operator 0  - Number of batches            ... 1

OPERATOR  0   PASS   0:  MOs    10 ...   10 +   11 ...   11 +   12 ...   12 +   13 ...   13
                            +   14 ...   14 +   15 ...   15 +   16 ...   16 +   17 ...   17
                            +   18 ...   18 +   19 ...   19 +   20 ...   20 +   21 ...   21
                            +   22 ...   22
  Reading integrals       ... ok

Operator 1  - window                       ... ( 10- 18)x( 19-117)
Operator 1  - Memory available             ...  5000 MB
Operator 1  - Memory needed per MO         ...   0.3 MB
Operator 1  - Number of orbitals per batch ... 1
Operator 1  - Number of batches            ... 1

OPERATOR  1   PASS   0:  MOs    10 ...   10 +   11 ...   11 +   12 ...   12 +   13 ...   13
                            +   14 ...   14 +   15 ...   15 +   16 ...   16 +   17 ...   17
                            +   18 ...   18
  Reading integrals       ... ok
Time spent in pair loops =     0.009 sec
Deleting buffer (Ka|jb)[aa] ...done
Deleting buffer (Ka|jb)[ab] ...done
Deleting buffer (Ka|jb)[ba] ...done
Deleting buffer (Ka|jb)[bb] ...done

Spin-scaled correlation energy components}
 E2 and T2 for alpha/alpha pairs :     -0.071550098 Eh      0.000000000
 E2 and T2 for beta/beta   pairs :     -0.034751177 Eh      0.000000000
 E2 and T2 for alpha/beta  pairs :     -0.252353182 Eh      0.000000000


-----------------------------------------------
 RI-MP2 CORRELATION ENERGY:     -0.358654456 Eh
-----------------------------------------------


-------
TIMINGS
-------

Total time                :    0.242 sec
Integral trafo            :    0.214 sec ( 88.3%)
I/O of integrals          :    0.000 sec (  0.1%)
K(i,j) Operators          :    0.003 sec (  1.1%)
T(i,j) pair energies      :    0.000 sec (  0.1%)
V-calculation             :    0.006 sec (  2.5%)
V**(-1/2)                 :    0.009 sec (  3.9%)
Gamma(ia|P)               :    0.000 sec (  0.0%)
Gamma-Trafo               :    0.000 sec (  0.0%)
D(virtual)                :    0.000 sec (  0.0%)
D(internal)               :    0.000 sec (  0.0%)
W(virtual)                :    0.000 sec (  0.0%)
W(internal)               :    0.000 sec (  0.0%)
L(virtual)                :    0.000 sec (  0.0%)
L(internal)               :    0.000 sec (  0.0%)
G(D)                      :    0.000 sec (  0.0%)
G(Z)                      :    0.000 sec (  0.0%)
Z-Vector Solution         :    0.000 sec (  0.0%)
Z-Vector Solution         :    0.000 sec (  0.0%)
3-Index Derivative 
+ Separable RIJ part      :    0.000 sec (  0.0%)
2-Index Derivative 
+ Separable RIJ part      :    0.000 sec (  0.0%)
Separable Gradient (X)    :    0.000 sec (  0.0%)


---------------------------------------
MP2 TOTAL ENERGY:    -1661.335988813 Eh
---------------------------------------


-------------------------------------------------------------------------------
                          DFT DISPERSION CORRECTION                            
                                                                               
                              DFTD3 V3.1  Rev 1                                
                          USING Becke-Johnson damping                          
-------------------------------------------------------------------------------
The DSD-BLYP/2013 functional is recognized
Active option DFTDOPT                   ...         4   

molecular C6(AA) [au] = 691.675065 


            DFT-D V3
 parameters
 s6 scaling factor         :     0.5700 
 a1 scaling factor         :     0.0000 
 s8 scaling factor         :     0.0000 
 a2 scaling factor         :     5.4000 
 ad hoc parameters k1-k3   :    16.0000     1.3333    -4.0000 

 Edisp/kcal,au: -2.159162516311  -0.003440844123 
 E6   /kcal   :  -2.159162516 
 E8   /kcal   :  -0.000000000 
 % E8         :   0.000000000 

-------------------------   ----------------
Dispersion correction           -0.003440844
-------------------------   ----------------


-------------------------   --------------------
FINAL SINGLE POINT ENERGY     -1661.339429657470
-------------------------   --------------------


                            ***************************************
                            *     ORCA property calculations      *
                            ***************************************


  WARNING: The energy has been calculated at the MP2 level but the densities
           used in the property calculations are still SCF densities
           MP2 response densities have not been calculated 
           use %mp2 Density relaxed end
           or  %mp2 Density unrelaxed end

                                    ---------------------
                                    Active property flags
                                    ---------------------
   (+) Dipole Moment


------------------------------------------------------------------------------
                       ORCA ELECTRIC PROPERTIES CALCULATION
------------------------------------------------------------------------------

Dipole Moment Calculation                       ... on
Quadrupole Moment Calculation                   ... off
Polarizability Calculation                      ... off
GBWName                                         ... TMD20_FeS.gbw
Electron density file                           ... TMD20_FeS.scfp
The origin for moment calculation is the CENTER OF MASS  = ( 0.000000,  0.000000  0.062073)

-------------
DIPOLE MOMENT
-------------
                                X             Y             Z
Electronic contribution:     -0.00000      -0.00000       5.28764
Nuclear contribution   :      0.00000       0.00000      -2.60707
                        -----------------------------------------
Total Dipole Moment    :     -0.00000      -0.00000       2.68057
                        -----------------------------------------
Magnitude (a.u.)       :      2.68057
Magnitude (Debye)      :      6.81347



--------------------
Rotational spectrum 
--------------------
 
Rotational constants in cm-1:     0.000000     0.202836     0.202836 
Rotational constants in MHz :     0.000000  6080.880231  6080.880231 

 Dipole components along the rotational axes: 
x,y,z [a.u.] :     2.680570    -0.000000    -0.000000 
x,y,z [Debye]:     6.813467    -0.000000    -0.000000 

 

Timings for individual modules:

Sum of individual times         ...        5.552 sec (=   0.093 min)
GTO integral calculation        ...        0.568 sec (=   0.009 min)  10.2 %
SCF iterations                  ...        4.290 sec (=   0.071 min)  77.3 %
MP2 module                      ...        0.695 sec (=   0.012 min)  12.5 %
                             ****ORCA TERMINATED NORMALLY****
TOTAL RUN TIME: 0 days 0 hours 0 minutes 6 seconds 41 msec
