
                                 *****************
                                 * O   R   C   A *
                                 *****************

           --- An Ab Initio, DFT and Semiempirical electronic structure package ---

                  #######################################################
                  #                        -***-                        #
                  #          Department of theory and spectroscopy      #
                  #               Directorship: Frank Neese             #
                  #        Max Planck Institute fuer Kohlenforschung    #
                  #                Kaiser Wilhelm Platz 1               #
                  #                 D-45470 Muelheim/Ruhr               #
                  #                      Germany                        #
                  #                                                     #
                  #                  All rights reserved                #
                  #                        -***-                        #
                  #######################################################


                         Program Version 4.2.0 -  RELEASE  -


 With contributions from (in alphabetic order):
   Daniel Aravena         : Magnetic Suceptibility
   Michael Atanasov       : Ab Initio Ligand Field Theory (pilot matlab implementation)
   Alexander A. Auer      : GIAO ZORA, VPT2
   Ute Becker             : Parallelization
   Giovanni Bistoni       : ED, misc. LED, open-shell LED, HFLED
   Martin Brehm           : Molecular dynamics
   Dmytro Bykov           : SCF Hessian
   Vijay G. Chilkuri      : MRCI spin determinant printing, contributions to CSF-ICE
   Dipayan Datta          : RHF DLPNO-CCSD density
   Achintya Kumar Dutta   : EOM-CC, STEOM-CC
   Dmitry Ganyushin       : Spin-Orbit,Spin-Spin,Magnetic field MRCI
   Miquel Garcia          : C-PCM Hessian, Gaussian charge scheme
   Yang Guo               : DLPNO-NEVPT2, CIM, IAO-localization
   Andreas Hansen         : Spin unrestricted coupled pair/coupled cluster methods
   Benjamin Helmich-Paris : CASSCF linear response (MC-RPA)
   Lee Huntington         : MR-EOM, pCC
   Robert Izsak           : Overlap fitted RIJCOSX, COSX-SCS-MP3, EOM
   Christian Kollmar      : KDIIS, OOCD, Brueckner-CCSD(T), CCSD density
   Simone Kossmann        : Meta GGA functionals, TD-DFT gradient, OOMP2, MP2 Hessian
   Martin Krupicka        : AUTO-CI
   Lucas Lang             : DCDCAS
   Dagmar Lenk            : GEPOL surface, SMD
   Dimitrios Liakos       : Extrapolation schemes; Compound Job, initial MDCI parallelization
   Dimitrios Manganas     : Further ROCIS development; embedding schemes
   Dimitrios Pantazis     : SARC Basis sets
   Taras Petrenko         : DFT Hessian,TD-DFT gradient, ASA, ECA, R-Raman, ABS, FL, XAS/XES, NRVS
   Peter Pinski           : DLPNO-MP2, DLPNO-MP2 Gradient
   Christoph Reimann      : Effective Core Potentials
   Marius Retegan         : Local ZFS, SOC
   Christoph Riplinger    : Optimizer, TS searches, QM/MM, DLPNO-CCSD(T), (RO)-DLPNO pert. Triples
   Tobias Risthaus        : Range-separated hybrids, TD-DFT gradient, RPA, STAB
   Michael Roemelt        : Original ROCIS implementation
   Masaaki Saitow         : Open-shell DLPNO-CCSD energy and density
   Barbara Sandhoefer     : DKH picture change effects
   Avijit Sen             : IP-ROCIS
   Kantharuban Sivalingam : CASSCF convergence, NEVPT2, FIC-MRCI
   Bernardo de Souza      : ESD, SOC TD-DFT
   Georgi Stoychev        : AutoAux, RI-MP2 NMR
   Willem Van den Heuvel  : Paramagnetic NMR
   Boris Wezisla          : Elementary symmetry handling
   Frank Wennmohs         : Technical directorship


 We gratefully acknowledge several colleagues who have allowed us to
 interface, adapt or use parts of their codes:
   Stefan Grimme, W. Hujo, H. Kruse,             : VdW corrections, initial TS optimization,
                  C. Bannwarth                     DFT functionals, gCP, sTDA/sTD-DF
   Ed Valeev, F. Pavosevic, A. Kumar             : LibInt (2-el integral package), F12 methods
   Garnet Chan, S. Sharma, J. Yang, R. Olivares  : DMRG
   Ulf Ekstrom                                   : XCFun DFT Library
   Mihaly Kallay                                 : mrcc  (arbitrary order and MRCC methods)
   Andreas Klamt, Michael Diedenhofen            : otool_cosmo (COSMO solvation model)
   Jiri Pittner, Ondrej Demel                    : Mk-CCSD
   Frank Weinhold                                : gennbo (NPA and NBO analysis)
   Christopher J. Cramer and Donald G. Truhlar   : smd solvation model
   Lars Goerigk                                  : TD-DFT with DH, B97 family of functionals
   V. Asgeirsson, H. Jonsson                     : NEB implementation
   FAccTs GmbH                                   : IRC, NEB, NEB-TS, Multilevel, MM, QM/MM, CI optimization
   S Lehtola, MJT Oliveira, MAL Marques          : LibXC Library


 Your calculation uses the libint2 library for the computation of 2-el integrals
 For citations please refer to: http://libint.valeyev.net

 Your ORCA version has been built with support for libXC version: 4.2.3
 For citations please refer to: https://tddft.org/programs/libxc/

 This ORCA versions uses:
   CBLAS   interface :  Fast vector & matrix operations
   LAPACKE interface :  Fast linear algebra routines
   SCALAPACK package :  Parallel linear algebra routines


Your calculation utilizes the atom-pairwise dispersion correction
with the Becke-Johnson damping scheme (D3BJ)
Cite in your paper:
S.Grimme, S.Ehrlich, L.Goerigk, J Comput Chem, (2011), 32, 1456–1465 
S.Grimme, J.Antony, S.Ehrlich and H.Krieg, J.Chem.Phys., 132, (2010), 154104 
   

----- Orbital basis set information -----
Your calculation utilizes the basis: def2-TZVPPD
   F. Weigend and R. Ahlrichs, Phys. Chem. Chem. Phys. 7, 3297 (2005).
   D. Rappoport and F. Furche, J. Chem. Phys. 133 134105 (2010).

----- AuxC basis set information -----
Your calculation utilizes the auxiliary basis: def2-TZVPPD/C
   A. Hellweg, C. Hattig, S. Hofener and W. Klopper, Theor. Chem. Acc. 117, 587 (2007).

----- AuxJK basis set information -----
Your calculation utilizes the auxiliary basis: def2/JK
   H-Ba, Hf-Rn: F. Weigend, J. Comput. Chem. 29, 167 (2008).

================================================================================
                                        WARNINGS
                       Please study these warnings very carefully!
================================================================================


WARNING: your system is open-shell and RHF/RKS was chosen
  ===> : WILL SWITCH to UHF/UKS


WARNING: No MP2 level density has been requested!
         To caclulate MP2 level properties use
         %mp2 Density relaxed end
         or
         %mp2 Density unrelaxed end
         Otherwise for double-hybrid DFT only the energy is correct!

WARNING: There are different parametrizations of Gershom Martin's DSD-DFs
         for use with and without D3(BJ)!
         You are using the D3(BJ) parametrized version,
         consistent with the 2013 article (S. Kozuch and J. M. L. Martin, JCC 2013, 34, 2327)

WARNING: The frozen-core approximation is turned on by default for 
         the MP2 part of double-hybrid DFT.

INFO   : the flag for use of LIBINT has been found!

================================================================================
                                       INPUT FILE
================================================================================
NAME = TMD21_CoH.in
|  1> #
|  2> # TMD21_CoH ri-DSD-BLYP/2013-D3BJ/Def2-TZVPPD
|  3> #
|  4> ! rijk ri-dsd-blyp/2013 d3bj def2-tzvppd def2/jk def2-tzvppd/c grid4 nofinalgrid
|  5> 
|  6> *xyz 0 3
|  7> Co       0.000000    0.000000    0.053929 
|  8> H        0.000000    0.000000   -1.456071 
|  9> *
| 10> 
| 11> %maxcore 5000
| 12> 
| 13> %pal
| 14> nprocs = 24
| 15> end
| 16> 
| 17> 
| 18>                          ****END OF INPUT****
================================================================================

                       ****************************
                       * Single Point Calculation *
                       ****************************

---------------------------------
CARTESIAN COORDINATES (ANGSTROEM)
---------------------------------
  Co     0.000000    0.000000    0.053929
  H      0.000000    0.000000   -1.456071

----------------------------
CARTESIAN COORDINATES (A.U.)
----------------------------
  NO LB      ZA    FRAG     MASS         X           Y           Z
   0 Co   27.0000    0    58.930    0.000000    0.000000    0.101911
   1 H     1.0000    0     1.008    0.000000    0.000000   -2.751575

--------------------------------
INTERNAL COORDINATES (ANGSTROEM)
--------------------------------
 Co     0   0   0     0.000000000000     0.00000000     0.00000000
 H      1   0   0     1.510000000000     0.00000000     0.00000000

---------------------------
INTERNAL COORDINATES (A.U.)
---------------------------
 Co     0   0   0     0.000000000000     0.00000000     0.00000000
 H      1   0   0     2.853486462221     0.00000000     0.00000000

---------------------
BASIS SET INFORMATION
---------------------
There are 2 groups of distinct atoms

 Group   1 Type Co  : 17s13p7d2f1g contracted to 6s6p4d2f1g pattern {842111/631111/4111/11/1}
 Group   2 Type H   : 5s3p1d contracted to 3s3p1d pattern {311/111/1}

Atom   0Co   basis set group =>   1
Atom   1H    basis set group =>   2
---------------------------------
AUXILIARY/C BASIS SET INFORMATION
---------------------------------
There are 2 groups of distinct atoms

 Group   1 Type Co  : 10s10p9d7f5g3h1i contracted to 10s10p9d7f5g3h1i pattern {1111111111/1111111111/111111111/1111111/11111/111/1}
 Group   2 Type H   : 5s4p3d1f contracted to 5s4p3d1f pattern {11111/1111/111/1}

Atom   0Co   basis set group =>   1
Atom   1H    basis set group =>   2
----------------------------------
AUXILIARY/JK BASIS SET INFORMATION
----------------------------------
There are 2 groups of distinct atoms

 Group   1 Type Co  : 19s14p12d10f7g3h1i contracted to 16s13p11d9f5g3h1i pattern {4111111111111111/2111111111111/21111111111/211111111/31111/111/1}
 Group   2 Type H   : 4s2p2d contracted to 2s2p2d pattern {31/11/11}

Atom   0Co   basis set group =>   1
Atom   1H    basis set group =>   2


           ************************************************************
           *        Program running with 24 parallel MPI-processes    *
           *              working on a common directory               *
           ************************************************************
------------------------------------------------------------------------------
                           ORCA GTO INTEGRAL CALCULATION
                           -- RI-GTO INTEGRALS CHOSEN --
------------------------------------------------------------------------------

                         BASIS SET STATISTICS AND STARTUP INFO

Gaussian basis set:
 # of primitive gaussian shells          ...   49
 # of primitive gaussian functions       ...  133
 # of contracted shells                  ...   26
 # of contracted basis functions         ...   84
 Highest angular momentum                ...    4
 Maximum contraction depth               ...    8
Auxiliary gaussian basis set:
 # of primitive gaussian shells          ...   74
 # of primitive gaussian functions       ...  320
 # of contracted shells                  ...   64
 # of contracted aux-basis functions     ...  282
 Highest angular momentum                ...    6
 Maximum contraction depth               ...    4
Ratio of auxiliary to basis functions    ...  3.36
Integral package used                  ... LIBINT
 One Electron integrals                  ... done
 Ordering auxiliary basis shells         ... done
 Integral threshhold             Thresh  ...  1.000e-10
 Primitive cut-off               TCut    ...  1.000e-11
 Pre-screening matrix                    ... done
 Shell pair data                         ... 
 Ordering of the shell pairs             ... done (   0.000 sec) 351 of 351 pairs
 Determination of significant pairs      ... done (   0.000 sec)
 Creation of shell pair data             ... done (   0.000 sec)
 Storage of shell pair data              ... done (   0.029 sec)
 Shell pair data done in (   0.029 sec)
 Computing two index integrals           ... done
 Cholesky decomposition of the V-matrix  ... done


Timings:
 Total evaluation time                   ...   0.202 sec (  0.003 min)
 One electron matrix time                ...   0.021 sec (  0.000 min) = 10.2%
 Schwartz matrix evaluation time         ...   0.103 sec (  0.002 min) = 51.3%
 Two index repulsion integral time       ...   0.014 sec (  0.000 min) =  7.0%
 Cholesky decomposition of V             ...   0.002 sec (  0.000 min) =  0.8%
 Three index repulsion integral time     ...   0.000 sec (  0.000 min) =  0.0%



           ************************************************************
           *        Program running with 24 parallel MPI-processes    *
           *              working on a common directory               *
           ************************************************************
-------------------------------------------------------------------------------
                                 ORCA SCF
-------------------------------------------------------------------------------

------------
SCF SETTINGS
------------
Hamiltonian:
 Density Functional     Method          .... DFT(GTOs)
 Exchange Functional    Exchange        .... B88
   X-Alpha parameter    XAlpha          ....  0.666667
   Becke's b parameter  XBeta           ....  0.004200
 Correlation Functional Correlation     .... LYP
 LDA part of GGA corr.  LDAOpt          .... VWN-5
 Gradients option       PostSCFGGA      .... off
 Hybrid DFT is turned on
   Fraction HF Exchange ScalHFX         ....  0.710000
   Scaling of DF-GGA-X  ScalDFX         ....  0.290000
   Scaling of DF-GGA-C  ScalDFC         ....  0.540000
   Scaling of DF-LDA-C  ScalLDAC        ....  0.540000
   Perturbative correction              ....  1.000000
   Density functional embedding theory  .... OFF
 RI-approximation to the Coulomb term is turned on
   Number of auxiliary basis functions  .... 282
   RI-JK (J+K treated both via RI)      .... on


General Settings:
 Integral files         IntName         .... TMD21_CoH
 Hartree-Fock type      HFTyp           .... UHF
 Total Charge           Charge          ....    0
 Multiplicity           Mult            ....    3
 Number of Electrons    NEL             ....   28
 Basis Dimension        Dim             ....   84
 Nuclear Repulsion      ENuc            ....      9.4621090226 Eh

Convergence Acceleration:
 DIIS                   CNVDIIS         .... on
   Start iteration      DIISMaxIt       ....    12
   Startup error        DIISStart       ....  0.200000
   # of expansion vecs  DIISMaxEq       ....     5
   Bias factor          DIISBfac        ....   1.050
   Max. coefficient     DIISMaxC        ....  10.000
 Newton-Raphson         CNVNR           .... off
 SOSCF                  CNVSOSCF        .... off
 Level Shifting         CNVShift        .... on
   Level shift para.    LevelShift      ....    0.2500
   Turn off err/grad.   ShiftErr        ....    0.0010
 Zerner damping         CNVZerner       .... off
 Static damping         CNVDamp         .... on
   Fraction old density DampFac         ....    0.7000
   Max. Damping (<1)    DampMax         ....    0.9800
   Min. Damping (>=0)   DampMin         ....    0.0000
   Turn off err/grad.   DampErr         ....    0.1000
 Fernandez-Rico         CNVRico         .... off

SCF Procedure:
 Maximum # iterations   MaxIter         ....   125
 SCF integral mode      SCFMode         .... Direct
   Integral package                     .... LIBINT
 Reset frequency        DirectResetFreq ....    20
 Integral Threshold     Thresh          ....  1.000e-10 Eh
 Primitive CutOff       TCut            ....  1.000e-11 Eh

Convergence Tolerance:
 Convergence Check Mode ConvCheckMode   .... Total+1el-Energy
 Convergence forced     ConvForced      .... 0
 Energy Change          TolE            ....  1.000e-06 Eh
 1-El. energy change                    ....  1.000e-03 Eh
 DIIS Error             TolErr          ....  1.000e-06


Diagonalization of the overlap matrix:
Smallest eigenvalue                        ... 2.887e-03
Time for diagonalization                   ...    0.003 sec
Threshold for overlap eigenvalues          ... 1.000e-08
Number of eigenvalues below threshold      ... 0
Time for construction of square roots      ...    0.001 sec
Total time needed                          ...    0.004 sec

-------------------
DFT GRID GENERATION
-------------------

General Integration Accuracy     IntAcc      ...  4.670
Radial Grid Type                 RadialGrid  ... Gauss-Chebyshev
Angular Grid (max. acc.)         AngularGrid ... Lebedev-302
Angular grid pruning method      GridPruning ... 3 (G Style)
Weight generation scheme         WeightScheme... Becke
Basis function cutoff            BFCut       ...    1.0000e-10
Integration weight cutoff        WCut        ...    1.0000e-14
Grids for H and He will be reduced by one unit

# of grid points (after initial pruning)     ...  13034 (   0.0 sec)
# of grid points (after weights+screening)   ...  12997 (   0.0 sec)
nearest neighbour list constructed           ...    0.0 sec
Grid point re-assignment to atoms done       ...    0.0 sec
Grid point division into batches done        ...    0.1 sec
Reduced shell lists constructed in    0.1 sec

Total number of grid points                  ...    12997
Total number of batches                      ...      204
Average number of points per batch           ...       63
Average number of grid points per atom       ...     6498
Average number of shells per batch           ...     5.40 (20.77%)
Average number of basis functions per batch  ...    14.20 (16.90%)
Average number of large shells per batch     ...     2.60 (48.15%)
Average number of large basis fcns per batch ...     6.80 (47.89%)
Average number of aux-shells per batch       ...     5.40 ( 8.44%)
Average number of aux functions per batch    ...    14.20 ( 5.04%)
Maximum spatial batch extension              ...  31.41, 28.57, 18.66 au
Average spatial batch extension              ...   1.02,  0.95,  0.71 au

Time for grid setup =    0.122 sec

------------------------------
INITIAL GUESS: MODEL POTENTIAL
------------------------------
Loading Hartree-Fock densities                     ... done
Calculating cut-offs                               ... done
Setting up the integral package                    ... done
Initializing the effective Hamiltonian             ... done
Starting the Coulomb interaction                   ... done (   0.0 sec)
Reading the grid                                   ... done
Mapping shells                                     ... done
Starting the XC term evaluation                    ... done (   0.0 sec)
  promolecular density results
     # of electrons  =     27.999537407
     EX              =    -58.296015759
     EC              =     -0.178015885
     EX+EC           =    -58.474031644
Transforming the Hamiltonian                       ... done (   0.0 sec)
Diagonalizing the Hamiltonian                      ... done (   0.0 sec)
Back transforming the eigenvectors                 ... done (   0.0 sec)
Now organizing SCF variables                       ... done
                      ------------------
                      INITIAL GUESS DONE (   0.2 sec)
                      ------------------
--------------
SCF ITERATIONS
--------------
ITER       Energy         Delta-E        Max-DP      RMS-DP      [F,P]     Damp
  0  -1382.5408114393   0.000000000000 0.03136937  0.00081488  0.1890897 0.7000
  1  -1382.3749255901   0.165885849265 0.02646369  0.00069954  0.1199613 0.7000
                               ***Turning on DIIS***
  2  -1382.4445681494  -0.069642559331 0.04904409  0.00148624  0.0932712 0.0000
  3  -1382.6172449187  -0.172676769259 0.01814583  0.00061741  0.0824589 0.0000
  4  -1382.6250071082  -0.007762189504 0.00805319  0.00029045  0.0416686 0.0000
  5  -1382.6276403558  -0.002633247651 0.00542808  0.00015996  0.0109738 0.0000
  6  -1382.6284427635  -0.000802407702 0.00421914  0.00010933  0.0065751 0.0000
  7  -1382.6287889434  -0.000346179851 0.00430015  0.00009472  0.0040856 0.0000
  8  -1382.6289682040  -0.000179260658 0.00255126  0.00005516  0.0021348 0.0000
  9  -1382.6290305577  -0.000062353699 0.00204354  0.00004251  0.0011890 0.0000
 10  -1382.6290605589  -0.000030001190 0.00205525  0.00004891  0.0007175 0.0000
 11  -1382.6290781279  -0.000017568995 0.00083787  0.00001865  0.0002317 0.0000
 12  -1382.6290798542  -0.000001726258 0.00003801  0.00000156  0.0000982 0.0000
 13  -1382.6290798968  -0.000000042680 0.00008522  0.00000183  0.0000880 0.0000
                 **** Energy Check signals convergence ****

               *****************************************************
               *                     SUCCESS                       *
               *           SCF CONVERGED AFTER  14 CYCLES          *
               *****************************************************


----------------
TOTAL SCF ENERGY
----------------

Total Energy       :        -1382.62907992 Eh          -37623.24999 eV

Components:
Nuclear Repulsion  :            9.46210902 Eh             257.47708 eV
Electronic Energy  :        -1392.09118894 Eh          -37880.72707 eV
One Electron Energy:        -1938.14979349 Eh          -52739.73712 eV
Two Electron Energy:          546.05860455 Eh           14859.01005 eV

Virial components:
Potential Energy   :        -2764.16447755 Eh          -75216.73938 eV
Kinetic Energy     :         1381.53539763 Eh           37593.48939 eV
Virial Ratio       :            2.00079164


DFT components:
N(Alpha)           :       14.999999759802 electrons
N(Beta)            :       13.000000329440 electrons
N(Total)           :       28.000000089243 electrons
E(X)               :      -17.006018993563 Eh       
E(C)               :       -0.685095240194 Eh       
E(XC)              :      -17.691114233757 Eh       
DFET-embed. en.    :        0.000000000000 Eh       

---------------
SCF CONVERGENCE
---------------

  Last Energy change         ...   -2.1675e-08  Tolerance :   1.0000e-06
  Last MAX-Density change    ...    2.0071e-05  Tolerance :   1.0000e-05
  Last RMS-Density change    ...    4.2903e-07  Tolerance :   1.0000e-06
  Last DIIS Error            ...    9.5078e-06  Tolerance :   1.0000e-06

             **** THE GBW FILE WAS UPDATED (TMD21_CoH.gbw) ****
             **** DENSITY FILE WAS UPDATED (TMD21_CoH.scfp) ****
             **** ENERGY FILE WAS UPDATED (TMD21_CoH.en.tmp) ****
----------------------
UHF SPIN CONTAMINATION
----------------------

Warning: in a DFT calculation there is little theoretical justification to 
         calculate <S**2> as in Hartree-Fock theory. We will do it anyways
         but you should keep in mind that the values have only limited relevance

Expectation value of <S**2>     :     2.043703
Ideal value S*(S+1) for S=1.0   :     2.000000
Deviation                       :     0.043703

             **** THE GBW FILE WAS UPDATED (TMD21_CoH.gbw) ****
             **** DENSITY FILE WAS UPDATED (TMD21_CoH.scfp) ****
----------------
ORBITAL ENERGIES
----------------
                 SPIN UP ORBITALS
  NO   OCC          E(Eh)            E(eV) 
   0   1.0000    -280.932023     -7644.5490 
   1   1.0000     -33.992890      -924.9936 
   2   1.0000     -29.387701      -799.6800 
   3   1.0000     -29.387701      -799.6800 
   4   1.0000     -29.386236      -799.6401 
   5   1.0000      -4.146293      -112.8264 
   6   1.0000      -2.722801       -74.0912 
   7   1.0000      -2.721524       -74.0564 
   8   1.0000      -2.721524       -74.0564 
   9   1.0000      -0.425029       -11.5656 
  10   1.0000      -0.418789       -11.3958 
  11   1.0000      -0.374924       -10.2022 
  12   1.0000      -0.374924       -10.2022 
  13   1.0000      -0.372542       -10.1374 
  14   1.0000      -0.281367        -7.6564 
  15   0.0000      -0.014942        -0.4066 
  16   0.0000       0.030335         0.8254 
  17   0.0000       0.030335         0.8254 
  18   0.0000       0.109947         2.9918 
  19   0.0000       0.126185         3.4337 
  20   0.0000       0.179515         4.8849 
  21   0.0000       0.179515         4.8849 
  22   0.0000       0.220854         6.0097 
  23   0.0000       0.250021         6.8034 
  24   0.0000       0.250021         6.8034 
  25   0.0000       0.266008         7.2384 
  26   0.0000       0.268647         7.3103 
  27   0.0000       0.364147         9.9089 
  28   0.0000       0.367310         9.9950 
  29   0.0000       0.367310         9.9950 
  30   0.0000       0.494634        13.4597 
  31   0.0000       0.572076        15.5670 
  32   0.0000       0.724907        19.7257 
  33   0.0000       0.724907        19.7257 
  34   0.0000       0.778447        21.1826 
  35   0.0000       0.989952        26.9380 
  36   0.0000       0.989952        26.9380 
  37   0.0000       1.121185        30.5090 
  38   0.0000       1.136518        30.9262 
  39   0.0000       1.246033        33.9063 
  40   0.0000       1.300648        35.3924 
  41   0.0000       1.300648        35.3924 
  42   0.0000       1.430705        38.9315 
  43   0.0000       2.686286        73.0976 
  44   0.0000       2.808399        76.4204 
  45   0.0000       2.808399        76.4204 
  46   0.0000       2.862901        77.9035 
  47   0.0000       2.897208        78.8370 
  48   0.0000       2.912651        79.2573 
  49   0.0000       2.922919        79.5367 
  50   0.0000       2.922919        79.5367 
  51   0.0000       2.957774        80.4851 
  52   0.0000       2.957774        80.4851 
  53   0.0000       3.215371        87.4947 
  54   0.0000       3.414256        92.9066 
  55   0.0000       3.511788        95.5606 
  56   0.0000       3.513567        95.6090 
  57   0.0000       3.945752       107.3694 
  58   0.0000       3.945752       107.3694 
  59   0.0000       3.992548       108.6428 
  60   0.0000       4.146231       112.8247 
  61   0.0000       4.178086       113.6915 
  62   0.0000       4.203310       114.3779 
  63   0.0000       4.203310       114.3779 
  64   0.0000       4.249964       115.6474 
  65   0.0000       4.249964       115.6474 
  66   0.0000       4.427036       120.4658 
  67   0.0000       5.406326       147.1136 
  68   0.0000      10.430539       283.8294 
  69   0.0000      10.432087       283.8715 
  70   0.0000      10.442176       284.1461 
  71   0.0000      10.452327       284.4223 
  72   0.0000      10.452327       284.4223 
  73   0.0000      10.466889       284.8185 
  74   0.0000      10.475103       285.0420 
  75   0.0000      10.475103       285.0420 
  76   0.0000      10.495001       285.5835 
  77   0.0000      11.006770       299.5094 
  78   0.0000      11.006770       299.5094 
  79   0.0000      11.025256       300.0125 
  80   0.0000      11.057780       300.8975 
  81   0.0000      11.134188       302.9767 
  82   0.0000      11.134188       302.9767 
  83   0.0000      11.415394       310.6287 

                 SPIN DOWN ORBITALS
  NO   OCC          E(Eh)            E(eV) 
   0   1.0000    -280.930550     -7644.5089 
   1   1.0000     -33.939357      -923.5369 
   2   1.0000     -29.339028      -798.3555 
   3   1.0000     -29.336675      -798.2915 
   4   1.0000     -29.336675      -798.2915 
   5   1.0000      -4.003341      -108.9364 
   6   1.0000      -2.557207       -69.5851 
   7   1.0000      -2.554765       -69.5187 
   8   1.0000      -2.554765       -69.5187 
   9   1.0000      -0.346170        -9.4198 
  10   1.0000      -0.318888        -8.6774 
  11   1.0000      -0.316432        -8.6105 
  12   1.0000      -0.316432        -8.6105 
  13   0.0000      -0.018149        -0.4939 
  14   0.0000       0.037374         1.0170 
  15   0.0000       0.037374         1.0170 
  16   0.0000       0.083324         2.2674 
  17   0.0000       0.133976         3.6457 
  18   0.0000       0.181447         4.9374 
  19   0.0000       0.192543         5.2394 
  20   0.0000       0.192543         5.2394 
  21   0.0000       0.193004         5.2519 
  22   0.0000       0.252079         6.8594 
  23   0.0000       0.252079         6.8594 
  24   0.0000       0.273752         7.4492 
  25   0.0000       0.283225         7.7070 
  26   0.0000       0.363776         9.8988 
  27   0.0000       0.369355        10.0507 
  28   0.0000       0.369355        10.0507 
  29   0.0000       0.406231        11.0541 
  30   0.0000       0.507749        13.8166 
  31   0.0000       0.575423        15.6581 
  32   0.0000       0.745168        20.2770 
  33   0.0000       0.745168        20.2770 
  34   0.0000       0.794591        21.6219 
  35   0.0000       0.987939        26.8832 
  36   0.0000       0.987939        26.8832 
  37   0.0000       1.155433        31.4409 
  38   0.0000       1.232766        33.5453 
  39   0.0000       1.310633        35.6641 
  40   0.0000       1.310633        35.6641 
  41   0.0000       1.312222        35.7074 
  42   0.0000       1.443542        39.2808 
  43   0.0000       2.713067        73.8263 
  44   0.0000       2.845571        77.4319 
  45   0.0000       2.845571        77.4319 
  46   0.0000       2.856671        77.7340 
  47   0.0000       2.916904        79.3730 
  48   0.0000       2.946864        80.1882 
  49   0.0000       2.999379        81.6172 
  50   0.0000       2.999379        81.6172 
  51   0.0000       3.018470        82.1367 
  52   0.0000       3.018470        82.1367 
  53   0.0000       3.261538        88.7510 
  54   0.0000       3.470174        94.4282 
  55   0.0000       3.502301        95.3025 
  56   0.0000       3.505397        95.3867 
  57   0.0000       3.946895       107.4005 
  58   0.0000       3.946895       107.4005 
  59   0.0000       4.092772       111.3700 
  60   0.0000       4.200686       114.3065 
  61   0.0000       4.200686       114.3065 
  62   0.0000       4.208322       114.5143 
  63   0.0000       4.272514       116.2610 
  64   0.0000       4.272514       116.2610 
  65   0.0000       4.289615       116.7264 
  66   0.0000       4.428833       120.5147 
  67   0.0000       5.444607       148.1553 
  68   0.0000      10.499013       285.6927 
  69   0.0000      10.500502       285.7332 
  70   0.0000      10.500502       285.7332 
  71   0.0000      10.513495       286.0868 
  72   0.0000      10.515779       286.1489 
  73   0.0000      10.516555       286.1700 
  74   0.0000      10.541972       286.8616 
  75   0.0000      10.541972       286.8616 
  76   0.0000      10.582139       287.9547 
  77   0.0000      11.077399       301.4313 
  78   0.0000      11.122142       302.6489 
  79   0.0000      11.133524       302.9586 
  80   0.0000      11.133524       302.9586 
  81   0.0000      11.247332       306.0555 
  82   0.0000      11.247332       306.0555 
  83   0.0000      11.555720       314.4471 

                    ********************************
                    * MULLIKEN POPULATION ANALYSIS *
                    ********************************

--------------------------------------------
MULLIKEN ATOMIC CHARGES AND SPIN POPULATIONS
--------------------------------------------
   0 Co:    0.206451    2.171486
   1 H :   -0.206451   -0.171486
Sum of atomic charges         :   -0.0000000
Sum of atomic spin populations:    2.0000000

-----------------------------------------------------
MULLIKEN REDUCED ORBITAL CHARGES AND SPIN POPULATIONS
-----------------------------------------------------
CHARGE
  0 Cos       :     6.684667  s :     6.684667
      pz      :     4.103357  p :    12.105613
      px      :     4.001128
      py      :     4.001128
      dz2     :     1.008201  d :     8.002014
      dxz     :     1.996955
      dyz     :     1.996955
      dx2y2   :     1.999932
      dxy     :     0.999970
      f0      :     0.000641  f :     0.001214
      f+1     :     0.000122
      f-1     :     0.000122
      f+2     :     0.000057
      f-2     :     0.000027
      f+3     :     0.000122
      f-3     :     0.000122
      g0      :     0.000016  g :     0.000042
      g+1     :     0.000000
      g-1     :     0.000000
      g+2     :     0.000003
      g-2     :     0.000005
      g+3     :     0.000003
      g-3     :     0.000003
      g+4     :     0.000012
      g-4     :     0.000000
  1 H s       :     1.206974  s :     1.206974
      pz      :    -0.004339  p :    -0.001689
      px      :     0.001325
      py      :     0.001325
      dz2     :     0.000470  d :     0.001166
      dxz     :     0.000345
      dyz     :     0.000345
      dx2y2   :     0.000008
      dxy     :    -0.000002

SPIN
  0 Cos       :     0.285443  s :     0.285443
      pz      :    -0.011260  p :    -0.011430
      px      :    -0.000085
      py      :    -0.000085
      dz2     :     0.896064  d :     1.897975
      dxz     :     0.000964
      dyz     :     0.000964
      dx2y2   :     0.000012
      dxy     :     0.999970
      f0      :    -0.000199  f :    -0.000503
      f+1     :    -0.000060
      f-1     :    -0.000060
      f+2     :    -0.000002
      f-2     :     0.000027
      f+3     :    -0.000105
      f-3     :    -0.000105
      g0      :     0.000000  g :     0.000002
      g+1     :     0.000000
      g-1     :     0.000000
      g+2     :    -0.000001
      g-2     :     0.000005
      g+3     :    -0.000001
      g-3     :    -0.000001
      g+4     :    -0.000001
      g-4     :    -0.000000
  1 H s       :    -0.170568  s :    -0.170568
      pz      :     0.000184  p :    -0.001192
      px      :    -0.000688
      py      :    -0.000688
      dz2     :     0.000337  d :     0.000274
      dxz     :    -0.000026
      dyz     :    -0.000026
      dx2y2   :    -0.000010
      dxy     :    -0.000002


                     *******************************
                     * LOEWDIN POPULATION ANALYSIS *
                     *******************************

-------------------------------------------
LOEWDIN ATOMIC CHARGES AND SPIN POPULATIONS
-------------------------------------------
   0 Co:    0.252348    2.053445
   1 H :   -0.252348   -0.053445

----------------------------------------------------
LOEWDIN REDUCED ORBITAL CHARGES AND SPIN POPULATIONS
----------------------------------------------------
CHARGE
  0 Cos       :     6.599989  s :     6.599989
      pz      :     4.157573  p :    12.159558
      px      :     4.000992
      py      :     4.000992
      dz2     :     1.038982  d :     7.985715
      dxz     :     1.973629
      dyz     :     1.973629
      dx2y2   :     1.999631
      dxy     :     0.999846
      f0      :     0.001524  f :     0.002344
      f+1     :     0.000244
      f-1     :     0.000244
      f+2     :     0.000060
      f-2     :     0.000028
      f+3     :     0.000122
      f-3     :     0.000122
      g0      :     0.000020  g :     0.000047
      g+1     :     0.000001
      g-1     :     0.000001
      g+2     :     0.000003
      g-2     :     0.000005
      g+3     :     0.000003
      g-3     :     0.000003
      g+4     :     0.000012
      g-4     :     0.000000
  1 H s       :     1.119791  s :     1.119791
      pz      :     0.074504  p :     0.115052
      px      :     0.020274
      py      :     0.020274
      dz2     :     0.007604  d :     0.017505
      dxz     :     0.004736
      dyz     :     0.004736
      dx2y2   :     0.000307
      dxy     :     0.000121

SPIN
  0 Cos       :     0.221402  s :     0.221402
      pz      :    -0.041249  p :    -0.042106
      px      :    -0.000428
      py      :    -0.000428
      dz2     :     0.869084  d :     1.874951
      dxz     :     0.002997
      dyz     :     0.002997
      dx2y2   :     0.000028
      dxy     :     0.999846
      f0      :    -0.000483  f :    -0.000796
      f+1     :    -0.000065
      f-1     :    -0.000065
      f+2     :    -0.000002
      f-2     :     0.000028
      f+3     :    -0.000105
      f-3     :    -0.000105
      g0      :    -0.000007  g :    -0.000006
      g+1     :    -0.000001
      g-1     :    -0.000001
      g+2     :    -0.000001
      g-2     :     0.000005
      g+3     :    -0.000001
      g-3     :    -0.000001
      g+4     :    -0.000001
      g-4     :    -0.000000
  1 H s       :    -0.071659  s :    -0.071659
      pz      :     0.020237  p :     0.015778
      px      :    -0.002229
      py      :    -0.002229
      dz2     :     0.002676  d :     0.002437
      dxz     :    -0.000168
      dyz     :    -0.000168
      dx2y2   :    -0.000026
      dxy     :     0.000121


                      *****************************
                      * MAYER POPULATION ANALYSIS *
                      *****************************

  NA   - Mulliken gross atomic population
  ZA   - Total nuclear charge
  QA   - Mulliken gross atomic charge
  VA   - Mayer's total valence
  BVA  - Mayer's bonded valence
  FA   - Mayer's free valence

  ATOM       NA         ZA         QA         VA         BVA        FA
  0 Co    26.7935    27.0000     0.2065     2.9503     0.9199     2.0304
  1 H      1.2065     1.0000    -0.2065     0.9528     0.9199     0.0329

  Mayer bond orders larger than 0.100000
B(  0-Co,  1-H ) :   0.9199 

-------
TIMINGS
-------

Total SCF time: 0 days 0 hours 0 min 2 sec 

Total time                  ....       2.183 sec
Sum of individual times     ....       2.081 sec  ( 95.3%)

Fock matrix formation       ....       1.824 sec  ( 83.6%)
  XC integration            ....       0.264 sec  ( 14.5% of F)
    Basis function eval.    ....       0.017 sec  (  6.4% of XC)
    Density eval.           ....       0.015 sec  (  5.6% of XC)
    XC-Functional eval.     ....       0.011 sec  (  4.0% of XC)
    XC-Potential eval.      ....       0.029 sec  ( 11.1% of XC)
Diagonalization             ....       0.029 sec  (  1.3%)
Density matrix formation    ....       0.006 sec  (  0.3%)
Population analysis         ....       0.004 sec  (  0.2%)
Initial guess               ....       0.084 sec  (  3.8%)
Orbital Transformation      ....       0.000 sec  (  0.0%)
Orbital Orthonormalization  ....       0.000 sec  (  0.0%)
DIIS solution               ....       0.012 sec  (  0.6%)
Grid generation             ....       0.122 sec  (  5.6%)


           ************************************************************
           *        Program running with 24 parallel MPI-processes    *
           *              working on a common directory               *
           ************************************************************

------------------------------------------------------------------------------
                                ORCA  MP2 
------------------------------------------------------------------------------

Freezing NCore=10 chemical core electrons

-------------
RI-MP2 ENERGY
-------------
Dimension of the basis                    ...   84
Memory devoted to MP2                     ... 5000 MB   
Data format for buffers                   ... DOUBLE
Compression type for matrix containers    ... UNCOMPRESSED
Scaling for aa/bb pairs                   ...   4.000e-01
Scaling for ab pairs                      ...   4.700e-01
Overall scaling of the MP2 energy         ...   1.000e+00
Calculating two index integrals           ... done (    0.004 sec)
Cholesky decomposition of V**-1           ... done (    0.008 sec)

-----------------
RI-TRANSFORMATION (AUX index driven)
-----------------

Dimension of the orbital-basis         ... 84
Dimension of the aux-basis             ... 264
Transformation of internal/external MOs...    5-  14 to   15-  83
Number Format for Storage              ... Double (8 Byte)
Integral mode                          ... Direct

First Phase: integral generation and transformation of MO indices
  Aux angular momentum 0               ... done (    0.000 sec)
  Aux angular momentum 1               ... done (    0.000 sec)
  Aux angular momentum 2               ... done (    0.001 sec)
  Aux angular momentum 3               ... done (    0.001 sec)
  Aux angular momentum 4               ... done (    0.001 sec)
  Aux angular momentum 5               ... done (    0.002 sec)
  Aux angular momentum 6               ... done (    0.003 sec)
Closing buffer VIA ( 0.00 GB; CompressionRatio= 1.00)
  Phase 1 completed in     0.079 sec
Second Phase: sorting and transformation of aux index

IA-Transformation
Memory available                       ... 4999 MB 
Max. # MO pairs treated in a batch     ... 1    
# of internal orbitals                 ... 10
# batches for internal orbitals        ... 1
Closing buffer IAV ( 0.00 GB; CompressionRatio= 1.00)
(ia|v) transformation done in     0.002 sec

  Phase 2 completed in     0.005 sec
RI-Integral transformation completed in     0.084 sec

-----------------
RI-TRANSFORMATION (AUX index driven)
-----------------

Dimension of the orbital-basis         ... 84
Dimension of the aux-basis             ... 264
Transformation of internal/external MOs...    5-  12 to   13-  83
Number Format for Storage              ... Double (8 Byte)
Integral mode                          ... Direct

First Phase: integral generation and transformation of MO indices
  Aux angular momentum 0               ... done (    0.000 sec)
  Aux angular momentum 1               ... done (    0.000 sec)
  Aux angular momentum 2               ... done (    0.001 sec)
  Aux angular momentum 3               ... done (    0.001 sec)
  Aux angular momentum 4               ... done (    0.001 sec)
  Aux angular momentum 5               ... done (    0.002 sec)
  Aux angular momentum 6               ... done (    0.003 sec)
Closing buffer VIA ( 0.00 GB; CompressionRatio= 1.00)
  Phase 1 completed in     0.078 sec
Second Phase: sorting and transformation of aux index

IA-Transformation
Memory available                       ... 4999 MB 
Max. # MO pairs treated in a batch     ... 1    
# of internal orbitals                 ... 8
# batches for internal orbitals        ... 1
Closing buffer IAV ( 0.00 GB; CompressionRatio= 1.00)
(ia|v) transformation done in     0.001 sec

  Phase 2 completed in     0.005 sec
RI-Integral transformation completed in     0.083 sec
Opening buffers                              ... done

Starting loop over batches of integrals:

Operator 0  - window                       ... (  5- 14)x( 15- 83)
Operator 0  - Memory available             ...  5000 MB
Operator 0  - Memory needed per MO         ...   0.1 MB
Operator 0  - Number of orbitals per batch ... 1
Operator 0  - Number of batches            ... 1

OPERATOR  0   PASS   0:  MOs     5 ...    5 +    6 ...    6 +    7 ...    7 +    8 ...    8
                            +    9 ...    9 +   10 ...   10 +   11 ...   11 +   12 ...   12
                            +   13 ...   13 +   14 ...   14
  Reading integrals       ... ok

Operator 1  - window                       ... (  5- 12)x( 13- 83)
Operator 1  - Memory available             ...  5000 MB
Operator 1  - Memory needed per MO         ...   0.1 MB
Operator 1  - Number of orbitals per batch ... 1
Operator 1  - Number of batches            ... 1

OPERATOR  1   PASS   0:  MOs     5 ...    5 +    6 ...    6 +    7 ...    7 +    8 ...    8
                            +    9 ...    9 +   10 ...   10 +   11 ...   11 +   12 ...   12
  Reading integrals       ... ok
Time spent in pair loops =     0.003 sec
Deleting buffer (Ka|jb)[aa] ...done
Deleting buffer (Ka|jb)[ab] ...done
Deleting buffer (Ka|jb)[ba] ...done
Deleting buffer (Ka|jb)[bb] ...done

Spin-scaled correlation energy components}
 E2 and T2 for alpha/alpha pairs :     -0.065803231 Eh      0.000000000
 E2 and T2 for beta/beta   pairs :     -0.036058491 Eh      0.000000000
 E2 and T2 for alpha/beta  pairs :     -0.245289529 Eh      0.000000000


-----------------------------------------------
 RI-MP2 CORRELATION ENERGY:     -0.347151251 Eh
-----------------------------------------------


-------
TIMINGS
-------

Total time                :    0.212 sec
Integral trafo            :    0.195 sec ( 91.9%)
I/O of integrals          :    0.000 sec (  0.1%)
K(i,j) Operators          :    0.001 sec (  0.4%)
T(i,j) pair energies      :    0.000 sec (  0.1%)
V-calculation             :    0.004 sec (  2.0%)
V**(-1/2)                 :    0.008 sec (  3.7%)
Gamma(ia|P)               :    0.000 sec (  0.0%)
Gamma-Trafo               :    0.000 sec (  0.0%)
D(virtual)                :    0.000 sec (  0.0%)
D(internal)               :    0.000 sec (  0.0%)
W(virtual)                :    0.000 sec (  0.0%)
W(internal)               :    0.000 sec (  0.0%)
L(virtual)                :    0.000 sec (  0.0%)
L(internal)               :    0.000 sec (  0.0%)
G(D)                      :    0.000 sec (  0.0%)
G(Z)                      :    0.000 sec (  0.0%)
Z-Vector Solution         :    0.000 sec (  0.0%)
Z-Vector Solution         :    0.000 sec (  0.0%)
3-Index Derivative 
+ Separable RIJ part      :    0.000 sec (  0.0%)
2-Index Derivative 
+ Separable RIJ part      :    0.000 sec (  0.0%)
Separable Gradient (X)    :    0.000 sec (  0.0%)


---------------------------------------
MP2 TOTAL ENERGY:    -1382.976231170 Eh
---------------------------------------


-------------------------------------------------------------------------------
                          DFT DISPERSION CORRECTION                            
                                                                               
                              DFTD3 V3.1  Rev 1                                
                          USING Becke-Johnson damping                          
-------------------------------------------------------------------------------
The DSD-BLYP/2013 functional is recognized
Active option DFTDOPT                   ...         4   

molecular C6(AA) [au] = 313.287291 


            DFT-D V3
 parameters
 s6 scaling factor         :     0.5700 
 a1 scaling factor         :     0.0000 
 s8 scaling factor         :     0.0000 
 a2 scaling factor         :     5.4000 
 ad hoc parameters k1-k3   :    16.0000     1.3333    -4.0000 

 Edisp/kcal,au: -0.382960647973  -0.000610286574 
 E6   /kcal   :  -0.382960648 
 E8   /kcal   :  -0.000000000 
 % E8         :   0.000000000 

-------------------------   ----------------
Dispersion correction           -0.000610287
-------------------------   ----------------


-------------------------   --------------------
FINAL SINGLE POINT ENERGY     -1382.976841456277
-------------------------   --------------------


                            ***************************************
                            *     ORCA property calculations      *
                            ***************************************


  WARNING: The energy has been calculated at the MP2 level but the densities
           used in the property calculations are still SCF densities
           MP2 response densities have not been calculated 
           use %mp2 Density relaxed end
           or  %mp2 Density unrelaxed end

                                    ---------------------
                                    Active property flags
                                    ---------------------
   (+) Dipole Moment


------------------------------------------------------------------------------
                       ORCA ELECTRIC PROPERTIES CALCULATION
------------------------------------------------------------------------------

Dipole Moment Calculation                       ... on
Quadrupole Moment Calculation                   ... off
Polarizability Calculation                      ... off
GBWName                                         ... TMD21_CoH.gbw
Electron density file                           ... TMD21_CoH.scfp
The origin for moment calculation is the CENTER OF MASS  = ( 0.000000,  0.000000  0.053923)

-------------
DIPOLE MOMENT
-------------
                                X             Y             Z
Electronic contribution:      0.00000       0.00000       2.99765
Nuclear contribution   :      0.00000       0.00000      -1.50982
                        -----------------------------------------
Total Dipole Moment    :      0.00000       0.00000       1.48783
                        -----------------------------------------
Magnitude (a.u.)       :      1.48783
Magnitude (Debye)      :      3.78176



--------------------
Rotational spectrum 
--------------------
 
Rotational constants in cm-1:     0.000000     7.460162     7.460162 
Rotational constants in MHz :     0.000000 223650.041735 223650.041735 

 Dipole components along the rotational axes: 
x,y,z [a.u.] :     1.487830     0.000000     0.000000 
x,y,z [Debye]:     3.781763     0.000000     0.000000 

 

Timings for individual modules:

Sum of individual times         ...        3.728 sec (=   0.062 min)
GTO integral calculation        ...        0.559 sec (=   0.009 min)  15.0 %
SCF iterations                  ...        2.512 sec (=   0.042 min)  67.4 %
MP2 module                      ...        0.656 sec (=   0.011 min)  17.6 %
                             ****ORCA TERMINATED NORMALLY****
TOTAL RUN TIME: 0 days 0 hours 0 minutes 4 seconds 226 msec
