
                                 *****************
                                 * O   R   C   A *
                                 *****************

           --- An Ab Initio, DFT and Semiempirical electronic structure package ---

                  #######################################################
                  #                        -***-                        #
                  #          Department of theory and spectroscopy      #
                  #               Directorship: Frank Neese             #
                  #        Max Planck Institute fuer Kohlenforschung    #
                  #                Kaiser Wilhelm Platz 1               #
                  #                 D-45470 Muelheim/Ruhr               #
                  #                      Germany                        #
                  #                                                     #
                  #                  All rights reserved                #
                  #                        -***-                        #
                  #######################################################


                         Program Version 4.2.0 -  RELEASE  -


 With contributions from (in alphabetic order):
   Daniel Aravena         : Magnetic Suceptibility
   Michael Atanasov       : Ab Initio Ligand Field Theory (pilot matlab implementation)
   Alexander A. Auer      : GIAO ZORA, VPT2
   Ute Becker             : Parallelization
   Giovanni Bistoni       : ED, misc. LED, open-shell LED, HFLED
   Martin Brehm           : Molecular dynamics
   Dmytro Bykov           : SCF Hessian
   Vijay G. Chilkuri      : MRCI spin determinant printing, contributions to CSF-ICE
   Dipayan Datta          : RHF DLPNO-CCSD density
   Achintya Kumar Dutta   : EOM-CC, STEOM-CC
   Dmitry Ganyushin       : Spin-Orbit,Spin-Spin,Magnetic field MRCI
   Miquel Garcia          : C-PCM Hessian, Gaussian charge scheme
   Yang Guo               : DLPNO-NEVPT2, CIM, IAO-localization
   Andreas Hansen         : Spin unrestricted coupled pair/coupled cluster methods
   Benjamin Helmich-Paris : CASSCF linear response (MC-RPA)
   Lee Huntington         : MR-EOM, pCC
   Robert Izsak           : Overlap fitted RIJCOSX, COSX-SCS-MP3, EOM
   Christian Kollmar      : KDIIS, OOCD, Brueckner-CCSD(T), CCSD density
   Simone Kossmann        : Meta GGA functionals, TD-DFT gradient, OOMP2, MP2 Hessian
   Martin Krupicka        : AUTO-CI
   Lucas Lang             : DCDCAS
   Dagmar Lenk            : GEPOL surface, SMD
   Dimitrios Liakos       : Extrapolation schemes; Compound Job, initial MDCI parallelization
   Dimitrios Manganas     : Further ROCIS development; embedding schemes
   Dimitrios Pantazis     : SARC Basis sets
   Taras Petrenko         : DFT Hessian,TD-DFT gradient, ASA, ECA, R-Raman, ABS, FL, XAS/XES, NRVS
   Peter Pinski           : DLPNO-MP2, DLPNO-MP2 Gradient
   Christoph Reimann      : Effective Core Potentials
   Marius Retegan         : Local ZFS, SOC
   Christoph Riplinger    : Optimizer, TS searches, QM/MM, DLPNO-CCSD(T), (RO)-DLPNO pert. Triples
   Tobias Risthaus        : Range-separated hybrids, TD-DFT gradient, RPA, STAB
   Michael Roemelt        : Original ROCIS implementation
   Masaaki Saitow         : Open-shell DLPNO-CCSD energy and density
   Barbara Sandhoefer     : DKH picture change effects
   Avijit Sen             : IP-ROCIS
   Kantharuban Sivalingam : CASSCF convergence, NEVPT2, FIC-MRCI
   Bernardo de Souza      : ESD, SOC TD-DFT
   Georgi Stoychev        : AutoAux, RI-MP2 NMR
   Willem Van den Heuvel  : Paramagnetic NMR
   Boris Wezisla          : Elementary symmetry handling
   Frank Wennmohs         : Technical directorship


 We gratefully acknowledge several colleagues who have allowed us to
 interface, adapt or use parts of their codes:
   Stefan Grimme, W. Hujo, H. Kruse,             : VdW corrections, initial TS optimization,
                  C. Bannwarth                     DFT functionals, gCP, sTDA/sTD-DF
   Ed Valeev, F. Pavosevic, A. Kumar             : LibInt (2-el integral package), F12 methods
   Garnet Chan, S. Sharma, J. Yang, R. Olivares  : DMRG
   Ulf Ekstrom                                   : XCFun DFT Library
   Mihaly Kallay                                 : mrcc  (arbitrary order and MRCC methods)
   Andreas Klamt, Michael Diedenhofen            : otool_cosmo (COSMO solvation model)
   Jiri Pittner, Ondrej Demel                    : Mk-CCSD
   Frank Weinhold                                : gennbo (NPA and NBO analysis)
   Christopher J. Cramer and Donald G. Truhlar   : smd solvation model
   Lars Goerigk                                  : TD-DFT with DH, B97 family of functionals
   V. Asgeirsson, H. Jonsson                     : NEB implementation
   FAccTs GmbH                                   : IRC, NEB, NEB-TS, Multilevel, MM, QM/MM, CI optimization
   S Lehtola, MJT Oliveira, MAL Marques          : LibXC Library


 Your calculation uses the libint2 library for the computation of 2-el integrals
 For citations please refer to: http://libint.valeyev.net

 Your ORCA version has been built with support for libXC version: 4.2.3
 For citations please refer to: https://tddft.org/programs/libxc/

 This ORCA versions uses:
   CBLAS   interface :  Fast vector & matrix operations
   LAPACKE interface :  Fast linear algebra routines
   SCALAPACK package :  Parallel linear algebra routines


Your calculation utilizes the DFT-NL dispersion correction.
Cite in your paper:
Vydrov, O. A.; Van Voorhis, T. J. Chem. Phys. 2010, 133, 244103
Hujo, W.; Grimme, S. J. Chem. Theory Comput. 2011, 7, 3866 
   

----- Orbital basis set information -----
Your calculation utilizes the basis: def2-TZVPPD
   F. Weigend and R. Ahlrichs, Phys. Chem. Chem. Phys. 7, 3297 (2005).
   D. Rappoport and F. Furche, J. Chem. Phys. 133 134105 (2010).

----- AuxJK basis set information -----
Your calculation utilizes the auxiliary basis: def2/JK
   H-Ba, Hf-Rn: F. Weigend, J. Comput. Chem. 29, 167 (2008).

================================================================================
                                        WARNINGS
                       Please study these warnings very carefully!
================================================================================


INFO   : the flag for use of LIBINT has been found!

================================================================================
                                       INPUT FILE
================================================================================
NAME = MOR06_cod.in
|  1> #
|  2> # MOR06_cod wB97M-V/Def2-TZVPPD
|  3> #
|  4> ! wb97m-v def2-tzvppd def2/jk grid4 nofinalgrid
|  5> 
|  6> *xyz 0 1
|  7> C        1.191389    1.227675   -0.516531 
|  8> C        0.040474   -1.675611   -0.245785 
|  9> C       -0.040358    1.675615   -0.245809 
| 10> H        1.773340    1.813957   -1.228847 
| 11> C       -1.191236   -1.227682   -0.516688 
| 12> H        0.358706   -2.571437   -0.779467 
| 13> H       -0.358419    2.571431   -0.779611 
| 14> H       -1.772889   -1.813647   -1.229501 
| 15> C       -1.080136    1.086431    0.676864 
| 16> H       -1.767105    1.885380    0.980109 
| 17> H       -0.630813    0.710792    1.597907 
| 18> C        1.924335    0.021333    0.009175 
| 19> H        2.698129    0.353800    0.719005 
| 20> H        2.474959   -0.423127   -0.831863 
| 21> C        1.079920   -1.086274    0.677130 
| 22> H        0.630295   -0.710168    1.597840 
| 23> H        1.766727   -1.885140    0.980948 
| 24> C       -1.924342   -0.021538    0.009255 
| 25> H       -2.697754   -0.354225    0.719400 
| 26> H       -2.475456    0.422687   -0.831583 
| 27> *
| 28> 
| 29> %maxcore 5000
| 30> 
| 31> %pal
| 32> nprocs = 24
| 33> end
| 34> 
| 35> 
| 36>                          ****END OF INPUT****
================================================================================

                       ****************************
                       * Single Point Calculation *
                       ****************************

---------------------------------
CARTESIAN COORDINATES (ANGSTROEM)
---------------------------------
  C      1.191389    1.227675   -0.516531
  C      0.040474   -1.675611   -0.245785
  C     -0.040358    1.675615   -0.245809
  H      1.773340    1.813957   -1.228847
  C     -1.191236   -1.227682   -0.516688
  H      0.358706   -2.571437   -0.779467
  H     -0.358419    2.571431   -0.779611
  H     -1.772889   -1.813647   -1.229501
  C     -1.080136    1.086431    0.676864
  H     -1.767105    1.885380    0.980109
  H     -0.630813    0.710792    1.597907
  C      1.924335    0.021333    0.009175
  H      2.698129    0.353800    0.719005
  H      2.474959   -0.423127   -0.831863
  C      1.079920   -1.086274    0.677130
  H      0.630295   -0.710168    1.597840
  H      1.766727   -1.885140    0.980948
  C     -1.924342   -0.021538    0.009255
  H     -2.697754   -0.354225    0.719400
  H     -2.475456    0.422687   -0.831583

----------------------------
CARTESIAN COORDINATES (A.U.)
----------------------------
  NO LB      ZA    FRAG     MASS         X           Y           Z
   0 C     6.0000    0    12.011    2.251399    2.319970   -0.976102
   1 C     6.0000    0    12.011    0.076485   -3.166446   -0.464466
   2 C     6.0000    0    12.011   -0.076266    3.166453   -0.464512
   3 H     1.0000    0     1.008    3.351127    3.427882   -2.322184
   4 C     6.0000    0    12.011   -2.251110   -2.319983   -0.976399
   5 H     1.0000    0     1.008    0.677856   -4.859312   -1.472979
   6 H     1.0000    0     1.008   -0.677314    4.859300   -1.473251
   7 H     1.0000    0     1.008   -3.350275   -3.427296   -2.323420
   8 C     6.0000    0    12.011   -2.041161    2.053057    1.279088
   9 H     1.0000    0     1.008   -3.339344    3.562852    1.852138
  10 H     1.0000    0     1.008   -1.192064    1.343202    3.019607
  11 C     6.0000    0    12.011    3.636466    0.040314    0.017338
  12 H     1.0000    0     1.008    5.098725    0.668585    1.358723
  13 H     1.0000    0     1.008    4.676995   -0.799594   -1.571993
  14 C     6.0000    0    12.011    2.040753   -2.052760    1.279590
  15 H     1.0000    0     1.008    1.191085   -1.342023    3.019480
  16 H     1.0000    0     1.008    3.338630   -3.562398    1.853723
  17 C     6.0000    0    12.011   -3.636479   -0.040701    0.017489
  18 H     1.0000    0     1.008   -5.098016   -0.669388    1.359469
  19 H     1.0000    0     1.008   -4.677934    0.798763   -1.571464

--------------------------------
INTERNAL COORDINATES (ANGSTROEM)
--------------------------------
 C      0   0   0     0.000000000000     0.00000000     0.00000000
 C      1   0   0     3.134801162999     0.00000000     0.00000000
 C      1   2   0     1.338335278207    87.39837992     0.00000000
 H      1   2   3     1.090773869224   138.59690844   231.73164876
 C      2   1   3     1.338334169238    90.59792642    23.27312661
 H      2   1   3     1.090225804696   127.70230695   148.02237882
 H      3   1   2     1.090226435554   116.38985056   216.82127495
 H      5   2   1     1.090769254519   116.31133348   134.85786534
 C      3   1   2     1.509834938021   128.81657868    34.87302504
 H      9   3   1     1.096450382638   108.42988251   156.58100101
 H      9   3   1     1.091474243626   111.49893931    40.27530954
 C      1   2   3     1.506266131305    53.61359399   146.70866644
 H     12   1   2     1.101430928123   108.96745814   207.60715234
 H     12   1   2     1.099125287863   107.49160470    94.01837509
 C      2   1   3     1.509813956655    55.84198959   244.65586572
 H     15   2   1     1.091478478011   111.50228632    98.27166546
 H     15   2   1     1.096447043103   108.43503727   214.58537254
 C      5   2   1     1.506268168429   130.18472749   314.92812445
 H     18   5   2     1.101432105369   108.96661215   253.52266726
 H     18   5   2     1.099122847486   107.49095771   139.93611493

---------------------------
INTERNAL COORDINATES (A.U.)
---------------------------
 C      0   0   0     0.000000000000     0.00000000     0.00000000
 C      1   0   0     5.923915682365     0.00000000     0.00000000
 C      1   2   0     2.529087151176    87.39837992     0.00000000
 H      1   2   3     2.061263886870   138.59690844   231.73164876
 C      2   1   3     2.529085055529    90.59792642    23.27312661
 H      2   1   3     2.060228195008   127.70230695   148.02237882
 H      3   1   2     2.060229387158   116.38985056   216.82127495
 H      5   2   1     2.061255166342   116.31133348   134.85786534
 C      3   1   2     2.853174540286   128.81657868    34.87302504
 H      9   3   1     2.071990942619   108.42988251   156.58100101
 H      9   3   1     2.062587402682   111.49893931    40.27530954
 C      1   2   3     2.846430472967    53.61359399   146.70866644
 H     12   1   2     2.081402809582   108.96745814   207.60715234
 H     12   1   2     2.077045780928   107.49160470    94.01837509
 C      2   1   3     2.853134891250    55.84198959   244.65586572
 H     15   2   1     2.062595404510   111.50228632    98.27166546
 H     15   2   1     2.071984631812   108.43503727   214.58537254
 C      5   2   1     2.846434322573   130.18472749   314.92812445
 H     18   5   2     2.081405034256   108.96661215   253.52266726
 H     18   5   2     2.077041169284   107.49095771   139.93611493

---------------------
BASIS SET INFORMATION
---------------------
There are 2 groups of distinct atoms

 Group   1 Type C   : 12s6p3d1f contracted to 6s3p3d1f pattern {621111/411/111/1}
 Group   2 Type H   : 5s3p1d contracted to 3s3p1d pattern {311/111/1}

Atom   0C    basis set group =>   1
Atom   1C    basis set group =>   1
Atom   2C    basis set group =>   1
Atom   3H    basis set group =>   2
Atom   4C    basis set group =>   1
Atom   5H    basis set group =>   2
Atom   6H    basis set group =>   2
Atom   7H    basis set group =>   2
Atom   8C    basis set group =>   1
Atom   9H    basis set group =>   2
Atom  10H    basis set group =>   2
Atom  11C    basis set group =>   1
Atom  12H    basis set group =>   2
Atom  13H    basis set group =>   2
Atom  14C    basis set group =>   1
Atom  15H    basis set group =>   2
Atom  16H    basis set group =>   2
Atom  17C    basis set group =>   1
Atom  18H    basis set group =>   2
Atom  19H    basis set group =>   2
----------------------------------
AUXILIARY/JK BASIS SET INFORMATION
----------------------------------
There are 2 groups of distinct atoms

 Group   1 Type C   : 14s10p6d2f1g contracted to 10s8p5d1f1g pattern {5111111111/31111111/21111/2/1}
 Group   2 Type H   : 4s2p2d contracted to 2s2p2d pattern {31/11/11}

Atom   0C    basis set group =>   1
Atom   1C    basis set group =>   1
Atom   2C    basis set group =>   1
Atom   3H    basis set group =>   2
Atom   4C    basis set group =>   1
Atom   5H    basis set group =>   2
Atom   6H    basis set group =>   2
Atom   7H    basis set group =>   2
Atom   8C    basis set group =>   1
Atom   9H    basis set group =>   2
Atom  10H    basis set group =>   2
Atom  11C    basis set group =>   1
Atom  12H    basis set group =>   2
Atom  13H    basis set group =>   2
Atom  14C    basis set group =>   1
Atom  15H    basis set group =>   2
Atom  16H    basis set group =>   2
Atom  17C    basis set group =>   1
Atom  18H    basis set group =>   2
Atom  19H    basis set group =>   2


           ************************************************************
           *        Program running with 24 parallel MPI-processes    *
           *              working on a common directory               *
           ************************************************************
------------------------------------------------------------------------------
                           ORCA GTO INTEGRAL CALCULATION
------------------------------------------------------------------------------

                         BASIS SET STATISTICS AND STARTUP INFO

 # of primitive gaussian shells          ...  284
 # of primitive gaussian functions       ...  644
 # of contracted shells                  ...  188
 # of contracted basis functions         ...  500
 Highest angular momentum                ...    3
 Maximum contraction depth               ...    6
 Integral package used                   ... LIBINT
 Integral threshhold            Thresh   ...  1.000e-10
 Primitive cut-off              TCut     ...  1.000e-11


------------------------------ INTEGRAL EVALUATION ----------------------------


 * One electron integrals 
 Pre-screening matrix                    ... done
 Shell pair data                         ... done (   0.004 sec)



           ************************************************************
           *        Program running with 24 parallel MPI-processes    *
           *              working on a common directory               *
           ************************************************************
-------------------------------------------------------------------------------
                                 ORCA SCF
-------------------------------------------------------------------------------

------------
SCF SETTINGS
------------
Hamiltonian:
 Density Functional     Method          .... DFT(GTOs)
 Exchange Functional    Exchange        .... WB97M-V
 Correlation Functional Correlation     .... WB97M-V
 Gradients option       PostSCFGGA      .... off
 Hybrid DFT is turned on
   Fraction HF Exchange ScalHFX         ....  0.150000
   Scaling of DF-GGA-X  ScalDFX         ....  0.000000
   Scaling of DF-GGA-C  ScalDFC         ....  1.000000
   Scaling of DF-LDA-C  ScalLDAC        ....  1.000000
   Perturbative correction              ....  0.000000
   Density functional embedding theory  .... OFF
 Long-range corrected/Screened/Range-Separated Hybrid DFT is turned on
   Amount of maximum screened exact exchange              ....  0.850000
   Range separation parameter mu (erf(mu*r12)/r12)        ....  0.300000
   NL short-range parameter             ....  6.000000
   NL long-range parameter              ....  0.010000


General Settings:
 Integral files         IntName         .... MOR06_cod
 Hartree-Fock type      HFTyp           .... RHF
 Total Charge           Charge          ....    0
 Multiplicity           Mult            ....    1
 Number of Electrons    NEL             ....   60
 Basis Dimension        Dim             ....  500
 Nuclear Repulsion      ENuc            ....    366.2552424093 Eh

Convergence Acceleration:
 DIIS                   CNVDIIS         .... on
   Start iteration      DIISMaxIt       ....    12
   Startup error        DIISStart       ....  0.200000
   # of expansion vecs  DIISMaxEq       ....     5
   Bias factor          DIISBfac        ....   1.050
   Max. coefficient     DIISMaxC        ....  10.000
 Newton-Raphson         CNVNR           .... off
 SOSCF                  CNVSOSCF        .... on
   Start iteration      SOSCFMaxIt      ....   150
   Startup grad/error   SOSCFStart      ....  0.003300
 Level Shifting         CNVShift        .... on
   Level shift para.    LevelShift      ....    0.2500
   Turn off err/grad.   ShiftErr        ....    0.0010
 Zerner damping         CNVZerner       .... off
 Static damping         CNVDamp         .... on
   Fraction old density DampFac         ....    0.7000
   Max. Damping (<1)    DampMax         ....    0.9800
   Min. Damping (>=0)   DampMin         ....    0.0000
   Turn off err/grad.   DampErr         ....    0.1000
 Fernandez-Rico         CNVRico         .... off

SCF Procedure:
 Maximum # iterations   MaxIter         ....   125
 SCF integral mode      SCFMode         .... Direct
   Integral package                     .... LIBINT
 Reset frequency        DirectResetFreq ....    20
 Integral Threshold     Thresh          ....  1.000e-10 Eh
 Primitive CutOff       TCut            ....  1.000e-11 Eh

Convergence Tolerance:
 Convergence Check Mode ConvCheckMode   .... Total+1el-Energy
 Convergence forced     ConvForced      .... 0
 Energy Change          TolE            ....  1.000e-06 Eh
 1-El. energy change                    ....  1.000e-03 Eh
 Orbital Gradient       TolG            ....  5.000e-05
 Orbital Rotation angle TolX            ....  5.000e-05
 DIIS Error             TolErr          ....  1.000e-06


Diagonalization of the overlap matrix:
Smallest eigenvalue                        ... 1.075e-06
Time for diagonalization                   ...    0.031 sec
Threshold for overlap eigenvalues          ... 1.000e-08
Number of eigenvalues below threshold      ... 0
Time for construction of square roots      ...    0.041 sec
Total time needed                          ...    0.073 sec

-------------------
DFT GRID GENERATION
-------------------

General Integration Accuracy     IntAcc      ...  4.670
Radial Grid Type                 RadialGrid  ... Gauss-Chebyshev
Angular Grid (max. acc.)         AngularGrid ... Lebedev-302
Angular grid pruning method      GridPruning ... 3 (G Style)
Weight generation scheme         WeightScheme... Becke
Basis function cutoff            BFCut       ...    1.0000e-10
Integration weight cutoff        WCut        ...    1.0000e-14
Grids for H and He will be reduced by one unit

# of grid points (after initial pruning)     ...  90424 (   0.0 sec)
# of grid points (after weights+screening)   ...  81051 (   0.0 sec)
nearest neighbour list constructed           ...    0.0 sec
Grid point re-assignment to atoms done       ...    0.0 sec
Grid point division into batches done        ...    0.2 sec
Reduced shell lists constructed in    0.3 sec

Total number of grid points                  ...    81051
Total number of batches                      ...     1278
Average number of points per batch           ...       63
Average number of grid points per atom       ...     4053
Average number of shells per batch           ...   144.76 (77.00%)
Average number of basis functions per batch  ...   392.98 (78.60%)
Average number of large shells per batch     ...   118.36 (81.76%)
Average number of large basis fcns per batch ...   315.93 (80.39%)
Maximum spatial batch extension              ...   2.07,  3.39,  3.06 au
Average spatial batch extension              ...   0.05,  0.05,  0.05 au

Time for grid setup =    0.410 sec

------------------------------
INITIAL GUESS: MODEL POTENTIAL
------------------------------
Loading Hartree-Fock densities                     ... done
Calculating cut-offs                               ... done
Setting up the integral package                    ... done
Initializing the effective Hamiltonian             ... done
Starting the Coulomb interaction                   ... done (   0.0 sec)
Reading the grid                                   ... done
Mapping shells                                     ... done
Starting the XC term evaluation                    ... done (   0.2 sec)
  promolecular density results
     # of electrons  =     59.993682736
     EX              =    -44.424902696
     EC              =     -1.959773747
     EX+EC           =    -46.384676443
Transforming the Hamiltonian                       ... done (   0.0 sec)
Diagonalizing the Hamiltonian                      ... done (   0.0 sec)
Back transforming the eigenvectors                 ... done (   0.0 sec)
Now organizing SCF variables                       ... done
                      ------------------
                      INITIAL GUESS DONE (   0.7 sec)
                      ------------------
--------------
SCF ITERATIONS
--------------
ITER       Energy         Delta-E        Max-DP      RMS-DP      [F,P]     Damp
               ***  Starting incremental Fock matrix formation  ***
  0   -311.9626934634   0.000000000000 0.20181739  0.00192825  0.1322243 0.7000
  1   -312.0618312356  -0.099137772140 0.13851823  0.00161417  0.0803859 0.7000
                               ***Turning on DIIS***
  2   -312.1139543299  -0.052123094298 0.32219256  0.00407692  0.0427839 0.0000
  3   -312.1990555686  -0.085101238757 0.10763568  0.00086784  0.0296472 0.0000
                      *** Initiating the SOSCF procedure ***
                           *** Shutting down DIIS ***
                      *** Re-Reading the Fockian *** 
                      *** Removing any level shift *** 
ITER      Energy       Delta-E        Grad      Rot      Max-DP    RMS-DP
  4   -312.21184272  -0.0127871469  0.000922  0.000922  0.022378  0.000288
               *** Restarting incremental Fock matrix formation ***
  5   -312.21208707  -0.0002443578  0.000460  0.000831  0.016688  0.000149
  6   -312.21211210  -0.0000250241  0.000189  0.000495  0.007380  0.000085
  7   -312.21211620  -0.0000040987  0.000086  0.000103  0.003798  0.000038
  8   -312.21211697  -0.0000007773  0.000019  0.000038  0.005138  0.000051
  9   -312.21211698  -0.0000000039  0.000018  0.000022  0.002751  0.000031
                 **** Energy Check signals convergence ****
              ***Rediagonalizing the Fockian in SOSCF/NRSCF***

               *****************************************************
               *                     SUCCESS                       *
               *           SCF CONVERGED AFTER  10 CYCLES          *
               *****************************************************


Setting up the DFT-NL grid :

General Integration Accuracy     IntAcc      ...  4.340
Radial Grid Type                 RadialGrid  ... Gauss-Chebyshev
Angular Grid (max. acc.)         AngularGrid ... Lebedev-110
Angular grid pruning method      GridPruning ... 3 (G Style)
Weight generation scheme         WeightScheme... Becke
Basis function cutoff            BFCut       ...    1.0000e-10
Integration weight cutoff        WCut        ...    1.0000e-14
Grids for H and He will be reduced by one unit

# of grid points (after initial pruning)     ...  22776 (   0.0 sec)
# of grid points (after weights+screening)   ...  20770 (   0.0 sec)
nearest neighbour list constructed           ...    0.0 sec
Grid point re-assignment to atoms done       ...    0.0 sec
Grid point division into batches done        ...    0.0 sec
Reduced shell lists constructed in    0.0 sec

Total number of grid points                  ...    20770
Total number of batches                      ...      335
Average number of points per batch           ...       62
Average number of grid points per atom       ...     1038
Average number of shells per batch           ...   142.27 (75.67%)
Average number of basis functions per batch  ...   389.20 (77.84%)
Average number of large shells per batch     ...   119.00 (83.65%)
Average number of large basis fcns per batch ...   319.00 (81.96%)
Maximum spatial batch extension              ...   2.42,  4.54,  4.41 au
Average spatial batch extension              ...   0.08,  0.08,  0.09 au

Final grid set up in    0.0 sec

-------------------------------------------------------------------------------
                         DFT-NL dispersion correction                          
-------------------------------------------------------------------------------

SC Energy -312.212116993 
NL    Energy 0.224515798 
SC+NL Energy -311.987601194 
NL done in    0.1 sec
-------------------------------------------------------------------------------

----------------
TOTAL SCF ENERGY
----------------

Total Energy       :         -311.98760119 Eh           -8489.61423 eV

Components:
Nuclear Repulsion  :          366.25524241 Eh            9966.31182 eV
Electronic Energy  :         -678.24284360 Eh          -18455.92606 eV
One Electron Energy:        -1144.66602124 Eh          -31147.94597 eV
Two Electron Energy:          466.42317764 Eh           12692.01991 eV

Virial components:
Potential Energy   :         -622.83348378 Eh          -16948.16072 eV
Kinetic Energy     :          310.84588259 Eh            8458.54649 eV
Virial Ratio       :            2.00367294


DFT components:
N(Alpha)           :       29.999844849464 electrons
N(Beta)            :       29.999844849464 electrons
N(Total)           :       59.999689698929 electrons
E(X)               :      -31.445800337033 Eh       
E(C)               :       -1.787343121750 Eh       
NL Energy, E(C,NL) :        0.224515798070 Eh       
E(XC)              :      -33.008627660713 Eh       
DFET-embed. en.    :        0.000000000000 Eh       

---------------
SCF CONVERGENCE
---------------

  Last Energy change         ...   -1.5256e-08  Tolerance :   1.0000e-06
  Last MAX-Density change    ...    5.4202e-03  Tolerance :   1.0000e-05
  Last RMS-Density change    ...    4.4959e-05  Tolerance :   1.0000e-06
  Last Orbital Gradient      ...    4.7395e-06  Tolerance :   5.0000e-05
  Last Orbital Rotation      ...    4.8725e-06  Tolerance :   5.0000e-05

             **** THE GBW FILE WAS UPDATED (MOR06_cod.gbw) ****
             **** DENSITY FILE WAS UPDATED (MOR06_cod.scfp) ****
             **** ENERGY FILE WAS UPDATED (MOR06_cod.en.tmp) ****
             **** THE GBW FILE WAS UPDATED (MOR06_cod.gbw) ****
             **** DENSITY FILE WAS UPDATED (MOR06_cod.scfp) ****
----------------
ORBITAL ENERGIES
----------------

  NO   OCC          E(Eh)            E(eV) 
   0   2.0000     -10.347660      -281.5741 
   1   2.0000     -10.347659      -281.5741 
   2   2.0000     -10.344017      -281.4750 
   3   2.0000     -10.344011      -281.4748 
   4   2.0000     -10.340849      -281.3888 
   5   2.0000     -10.340844      -281.3887 
   6   2.0000     -10.338562      -281.3266 
   7   2.0000     -10.338559      -281.3265 
   8   2.0000      -0.952377       -25.9155 
   9   2.0000      -0.898930       -24.4611 
  10   2.0000      -0.893586       -24.3157 
  11   2.0000      -0.808729       -22.0066 
  12   2.0000      -0.790974       -21.5235 
  13   2.0000      -0.712309       -19.3829 
  14   2.0000      -0.650888       -17.7116 
  15   2.0000      -0.631760       -17.1911 
  16   2.0000      -0.590140       -16.0585 
  17   2.0000      -0.559932       -15.2365 
  18   2.0000      -0.547587       -14.9006 
  19   2.0000      -0.540781       -14.7154 
  20   2.0000      -0.520959       -14.1760 
  21   2.0000      -0.508481       -13.8365 
  22   2.0000      -0.473470       -12.8838 
  23   2.0000      -0.471958       -12.8426 
  24   2.0000      -0.460054       -12.5187 
  25   2.0000      -0.432305       -11.7636 
  26   2.0000      -0.416256       -11.3269 
  27   2.0000      -0.406077       -11.0499 
  28   2.0000      -0.339082        -9.2269 
  29   2.0000      -0.335490        -9.1292 
  30   0.0000       0.039965         1.0875 
  31   0.0000       0.050121         1.3639 
  32   0.0000       0.057609         1.5676 
  33   0.0000       0.057797         1.5727 
  34   0.0000       0.070627         1.9219 
  35   0.0000       0.078674         2.1408 
  36   0.0000       0.079420         2.1611 
  37   0.0000       0.084864         2.3093 
  38   0.0000       0.093327         2.5396 
  39   0.0000       0.106770         2.9054 
  40   0.0000       0.121499         3.3062 
  41   0.0000       0.128396         3.4938 
  42   0.0000       0.130219         3.5434 
  43   0.0000       0.139795         3.8040 
  44   0.0000       0.155182         4.2227 
  45   0.0000       0.159277         4.3341 
  46   0.0000       0.162672         4.4265 
  47   0.0000       0.180578         4.9138 
  48   0.0000       0.192927         5.2498 
  49   0.0000       0.196960         5.3595 
  50   0.0000       0.204022         5.5517 
  51   0.0000       0.204736         5.5712 
  52   0.0000       0.215296         5.8585 
  53   0.0000       0.225184         6.1276 
  54   0.0000       0.232829         6.3356 
  55   0.0000       0.233703         6.3594 
  56   0.0000       0.240638         6.5481 
  57   0.0000       0.245305         6.6751 
  58   0.0000       0.253273         6.8919 
  59   0.0000       0.256376         6.9764 
  60   0.0000       0.259564         7.0631 
  61   0.0000       0.260347         7.0844 
  62   0.0000       0.261739         7.1223 
  63   0.0000       0.277192         7.5428 
  64   0.0000       0.278371         7.5749 
  65   0.0000       0.278768         7.5857 
  66   0.0000       0.281062         7.6481 
  67   0.0000       0.290103         7.8941 
  68   0.0000       0.300670         8.1817 
  69   0.0000       0.310545         8.4504 
  70   0.0000       0.310853         8.4587 
  71   0.0000       0.315776         8.5927 
  72   0.0000       0.316707         8.6180 
  73   0.0000       0.321535         8.7494 
  74   0.0000       0.328472         8.9382 
  75   0.0000       0.333322         9.0702 
  76   0.0000       0.336572         9.1586 
  77   0.0000       0.344121         9.3640 
  78   0.0000       0.351123         9.5545 
  79   0.0000       0.355697         9.6790 
  80   0.0000       0.356151         9.6914 
  81   0.0000       0.363758         9.8984 
  82   0.0000       0.365887         9.9563 
  83   0.0000       0.374381        10.1874 
  84   0.0000       0.376755        10.2520 
  85   0.0000       0.380699        10.3593 
  86   0.0000       0.383832        10.4446 
  87   0.0000       0.389867        10.6088 
  88   0.0000       0.398902        10.8547 
  89   0.0000       0.401171        10.9164 
  90   0.0000       0.405590        11.0367 
  91   0.0000       0.407987        11.1019 
  92   0.0000       0.414425        11.2771 
  93   0.0000       0.424557        11.5528 
  94   0.0000       0.425091        11.5673 
  95   0.0000       0.428924        11.6716 
  96   0.0000       0.435496        11.8504 
  97   0.0000       0.443129        12.0581 
  98   0.0000       0.445701        12.1281 
  99   0.0000       0.451060        12.2740 
 100   0.0000       0.454344        12.3633 
 101   0.0000       0.459302        12.4982 
 102   0.0000       0.469274        12.7696 
 103   0.0000       0.469718        12.7817 
 104   0.0000       0.473740        12.8911 
 105   0.0000       0.479108        13.0372 
 106   0.0000       0.481990        13.1156 
 107   0.0000       0.493688        13.4339 
 108   0.0000       0.495292        13.4776 
 109   0.0000       0.500603        13.6221 
 110   0.0000       0.506653        13.7867 
 111   0.0000       0.512806        13.9542 
 112   0.0000       0.513118        13.9626 
 113   0.0000       0.530501        14.4357 
 114   0.0000       0.536838        14.6081 
 115   0.0000       0.540165        14.6986 
 116   0.0000       0.549995        14.9661 
 117   0.0000       0.553818        15.0702 
 118   0.0000       0.563678        15.3384 
 119   0.0000       0.567139        15.4326 
 120   0.0000       0.577749        15.7213 
 121   0.0000       0.579531        15.7698 
 122   0.0000       0.584116        15.8946 
 123   0.0000       0.599321        16.3084 
 124   0.0000       0.601989        16.3809 
 125   0.0000       0.614830        16.7304 
 126   0.0000       0.620590        16.8871 
 127   0.0000       0.628388        17.0993 
 128   0.0000       0.628976        17.1153 
 129   0.0000       0.630746        17.1635 
 130   0.0000       0.638028        17.3616 
 131   0.0000       0.644007        17.5243 
 132   0.0000       0.649857        17.6835 
 133   0.0000       0.660422        17.9710 
 134   0.0000       0.664292        18.0763 
 135   0.0000       0.677279        18.4297 
 136   0.0000       0.679217        18.4824 
 137   0.0000       0.689204        18.7542 
 138   0.0000       0.699971        19.0472 
 139   0.0000       0.707145        19.2424 
 140   0.0000       0.711779        19.3685 
 141   0.0000       0.714782        19.4502 
 142   0.0000       0.718366        19.5477 
 143   0.0000       0.726538        19.7701 
 144   0.0000       0.728018        19.8104 
 145   0.0000       0.736682        20.0461 
 146   0.0000       0.739247        20.1159 
 147   0.0000       0.746105        20.3025 
 148   0.0000       0.748228        20.3603 
 149   0.0000       0.764564        20.8048 
 150   0.0000       0.769236        20.9320 
 151   0.0000       0.773544        21.0492 
 152   0.0000       0.779781        21.2189 
 153   0.0000       0.781713        21.2715 
 154   0.0000       0.787823        21.4377 
 155   0.0000       0.792323        21.5602 
 156   0.0000       0.795916        21.6580 
 157   0.0000       0.800371        21.7792 
 158   0.0000       0.806231        21.9387 
 159   0.0000       0.809851        22.0372 
 160   0.0000       0.823049        22.3963 
 161   0.0000       0.831586        22.6286 
 162   0.0000       0.837297        22.7840 
 163   0.0000       0.842872        22.9357 
 164   0.0000       0.847409        23.0592 
 165   0.0000       0.852544        23.1989 
 166   0.0000       0.871990        23.7281 
 167   0.0000       0.874802        23.8046 
 168   0.0000       0.888901        24.1882 
 169   0.0000       0.893546        24.3146 
 170   0.0000       0.897265        24.4158 
 171   0.0000       0.905659        24.6442 
 172   0.0000       0.912782        24.8380 
 173   0.0000       0.930392        25.3173 
 174   0.0000       0.946568        25.7574 
 175   0.0000       0.949093        25.8261 
 176   0.0000       0.957867        26.0649 
 177   0.0000       0.968400        26.3515 
 178   0.0000       1.003388        27.3036 
 179   0.0000       1.008196        27.4344 
 180   0.0000       1.019993        27.7554 
 181   0.0000       1.039101        28.2754 
 182   0.0000       1.042227        28.3604 
 183   0.0000       1.072349        29.1801 
 184   0.0000       1.078874        29.3577 
 185   0.0000       1.085730        29.5442 
 186   0.0000       1.121343        30.5133 
 187   0.0000       1.131215        30.7819 
 188   0.0000       1.144747        31.1502 
 189   0.0000       1.146434        31.1961 
 190   0.0000       1.164573        31.6897 
 191   0.0000       1.185115        32.2486 
 192   0.0000       1.191732        32.4287 
 193   0.0000       1.220798        33.2196 
 194   0.0000       1.232626        33.5415 
 195   0.0000       1.235990        33.6330 
 196   0.0000       1.253846        34.1189 
 197   0.0000       1.266617        34.4664 
 198   0.0000       1.274889        34.6915 
 199   0.0000       1.287046        35.0223 
 200   0.0000       1.298679        35.3389 
 201   0.0000       1.301640        35.4194 
 202   0.0000       1.319536        35.9064 
 203   0.0000       1.344799        36.5939 
 204   0.0000       1.350911        36.7602 
 205   0.0000       1.356577        36.9143 
 206   0.0000       1.372266        37.3413 
 207   0.0000       1.386360        37.7248 
 208   0.0000       1.400853        38.1192 
 209   0.0000       1.405648        38.2496 
 210   0.0000       1.408996        38.3407 
 211   0.0000       1.424771        38.7700 
 212   0.0000       1.426559        38.8186 
 213   0.0000       1.449462        39.4419 
 214   0.0000       1.450127        39.4600 
 215   0.0000       1.455748        39.6129 
 216   0.0000       1.483814        40.3766 
 217   0.0000       1.508578        41.0505 
 218   0.0000       1.519746        41.3544 
 219   0.0000       1.525050        41.4987 
 220   0.0000       1.530779        41.6546 
 221   0.0000       1.532381        41.6982 
 222   0.0000       1.546339        42.0780 
 223   0.0000       1.554730        42.3064 
 224   0.0000       1.566234        42.6194 
 225   0.0000       1.569936        42.7201 
 226   0.0000       1.579884        42.9908 
 227   0.0000       1.586933        43.1826 
 228   0.0000       1.591534        43.3078 
 229   0.0000       1.619140        44.0590 
 230   0.0000       1.624636        44.2086 
 231   0.0000       1.628361        44.3100 
 232   0.0000       1.636031        44.5187 
 233   0.0000       1.666858        45.3575 
 234   0.0000       1.670327        45.4519 
 235   0.0000       1.684694        45.8428 
 236   0.0000       1.692098        46.0443 
 237   0.0000       1.704796        46.3899 
 238   0.0000       1.720242        46.8102 
 239   0.0000       1.751170        47.6518 
 240   0.0000       1.755498        47.7695 
 241   0.0000       1.762473        47.9593 
 242   0.0000       1.772664        48.2366 
 243   0.0000       1.797091        48.9013 
 244   0.0000       1.811025        49.2805 
 245   0.0000       1.823917        49.6313 
 246   0.0000       1.825670        49.6790 
 247   0.0000       1.832913        49.8761 
 248   0.0000       1.833812        49.9006 
 249   0.0000       1.885213        51.2993 
 250   0.0000       1.891387        51.4673 
 251   0.0000       1.903320        51.7920 
 252   0.0000       1.923019        52.3280 
 253   0.0000       1.959032        53.3080 
 254   0.0000       1.960574        53.3499 
 255   0.0000       1.983836        53.9829 
 256   0.0000       1.987805        54.0909 
 257   0.0000       1.995316        54.2953 
 258   0.0000       2.017375        54.8956 
 259   0.0000       2.068706        56.2924 
 260   0.0000       2.085602        56.7521 
 261   0.0000       2.087990        56.8171 
 262   0.0000       2.117670        57.6247 
 263   0.0000       2.135983        58.1230 
 264   0.0000       2.138462        58.1905 
 265   0.0000       2.190381        59.6033 
 266   0.0000       2.209326        60.1188 
 267   0.0000       2.235576        60.8331 
 268   0.0000       2.253310        61.3157 
 269   0.0000       2.271592        61.8132 
 270   0.0000       2.307610        62.7933 
 271   0.0000       2.325568        63.2819 
 272   0.0000       2.351516        63.9880 
 273   0.0000       2.360874        64.2426 
 274   0.0000       2.370017        64.4915 
 275   0.0000       2.399026        65.2808 
 276   0.0000       2.443752        66.4979 
 277   0.0000       2.457462        66.8710 
 278   0.0000       2.479814        67.4792 
 279   0.0000       2.519483        68.5586 
 280   0.0000       2.542449        69.1835 
 281   0.0000       2.551546        69.4311 
 282   0.0000       2.586803        70.3905 
 283   0.0000       2.618760        71.2601 
 284   0.0000       2.638376        71.7939 
 285   0.0000       2.663556        72.4790 
 286   0.0000       2.683833        73.0308 
 287   0.0000       2.730482        74.3002 
 288   0.0000       2.742336        74.6227 
 289   0.0000       2.758383        75.0594 
 290   0.0000       2.788983        75.8921 
 291   0.0000       2.810733        76.4839 
 292   0.0000       2.816517        76.6413 
 293   0.0000       2.858330        77.7791 
 294   0.0000       2.867926        78.0402 
 295   0.0000       2.882281        78.4308 
 296   0.0000       2.898428        78.8702 
 297   0.0000       2.904180        79.0268 
 298   0.0000       2.912686        79.2582 
 299   0.0000       2.958641        80.5087 
 300   0.0000       2.962982        80.6268 
 301   0.0000       2.975159        80.9582 
 302   0.0000       2.991015        81.3897 
 303   0.0000       3.009311        81.8875 
 304   0.0000       3.012748        81.9810 
 305   0.0000       3.027074        82.3709 
 306   0.0000       3.040604        82.7390 
 307   0.0000       3.045170        82.8633 
 308   0.0000       3.056130        83.1615 
 309   0.0000       3.072868        83.6170 
 310   0.0000       3.078318        83.7653 
 311   0.0000       3.082082        83.8677 
 312   0.0000       3.113066        84.7108 
 313   0.0000       3.130422        85.1831 
 314   0.0000       3.151680        85.7616 
 315   0.0000       3.151863        85.7666 
 316   0.0000       3.159383        85.9712 
 317   0.0000       3.170657        86.2780 
 318   0.0000       3.181467        86.5721 
 319   0.0000       3.186220        86.7015 
 320   0.0000       3.221008        87.6481 
 321   0.0000       3.243154        88.2507 
 322   0.0000       3.243631        88.2637 
 323   0.0000       3.258921        88.6798 
 324   0.0000       3.259052        88.6833 
 325   0.0000       3.263384        88.8012 
 326   0.0000       3.268255        88.9337 
 327   0.0000       3.279133        89.2297 
 328   0.0000       3.302209        89.8577 
 329   0.0000       3.304160        89.9108 
 330   0.0000       3.316121        90.2362 
 331   0.0000       3.316885        90.2570 
 332   0.0000       3.347002        91.0766 
 333   0.0000       3.365863        91.5898 
 334   0.0000       3.368540        91.6626 
 335   0.0000       3.390751        92.2670 
 336   0.0000       3.392479        92.3141 
 337   0.0000       3.417996        93.0084 
 338   0.0000       3.424569        93.1873 
 339   0.0000       3.434091        93.4464 
 340   0.0000       3.445194        93.7485 
 341   0.0000       3.449853        93.8753 
 342   0.0000       3.485407        94.8427 
 343   0.0000       3.500939        95.2654 
 344   0.0000       3.513276        95.6011 
 345   0.0000       3.515481        95.6611 
 346   0.0000       3.532774        96.1317 
 347   0.0000       3.532874        96.1344 
 348   0.0000       3.547534        96.5333 
 349   0.0000       3.571704        97.1910 
 350   0.0000       3.578246        97.3690 
 351   0.0000       3.594527        97.8121 
 352   0.0000       3.594621        97.8146 
 353   0.0000       3.624370        98.6241 
 354   0.0000       3.624546        98.6289 
 355   0.0000       3.631665        98.8226 
 356   0.0000       3.658435        99.5511 
 357   0.0000       3.669740        99.8587 
 358   0.0000       3.676757       100.0496 
 359   0.0000       3.696474       100.5862 
 360   0.0000       3.707632       100.8898 
 361   0.0000       3.715122       101.0936 
 362   0.0000       3.722477       101.2937 
 363   0.0000       3.741558       101.8130 
 364   0.0000       3.749658       102.0334 
 365   0.0000       3.751754       102.0904 
 366   0.0000       3.778550       102.8196 
 367   0.0000       3.792902       103.2101 
 368   0.0000       3.813338       103.7662 
 369   0.0000       3.828572       104.1808 
 370   0.0000       3.832055       104.2755 
 371   0.0000       3.855424       104.9114 
 372   0.0000       3.859407       105.0198 
 373   0.0000       3.885704       105.7354 
 374   0.0000       3.886226       105.7496 
 375   0.0000       3.917639       106.6044 
 376   0.0000       3.919702       106.6605 
 377   0.0000       3.933798       107.0441 
 378   0.0000       3.957412       107.6867 
 379   0.0000       3.958758       107.7233 
 380   0.0000       3.981192       108.3337 
 381   0.0000       3.995761       108.7302 
 382   0.0000       4.021649       109.4346 
 383   0.0000       4.023344       109.4807 
 384   0.0000       4.038359       109.8893 
 385   0.0000       4.051911       110.2581 
 386   0.0000       4.063371       110.5699 
 387   0.0000       4.079869       111.0189 
 388   0.0000       4.103618       111.6651 
 389   0.0000       4.113941       111.9460 
 390   0.0000       4.115406       111.9859 
 391   0.0000       4.122833       112.1880 
 392   0.0000       4.152891       113.0059 
 393   0.0000       4.163732       113.3009 
 394   0.0000       4.167063       113.3915 
 395   0.0000       4.183997       113.8523 
 396   0.0000       4.187287       113.9419 
 397   0.0000       4.228842       115.0727 
 398   0.0000       4.239535       115.3636 
 399   0.0000       4.251188       115.6807 
 400   0.0000       4.254114       115.7603 
 401   0.0000       4.260404       115.9315 
 402   0.0000       4.273616       116.2910 
 403   0.0000       4.292889       116.8155 
 404   0.0000       4.307306       117.2078 
 405   0.0000       4.320621       117.5701 
 406   0.0000       4.323718       117.6544 
 407   0.0000       4.340079       118.0996 
 408   0.0000       4.361358       118.6786 
 409   0.0000       4.370789       118.9352 
 410   0.0000       4.387892       119.4006 
 411   0.0000       4.394634       119.5841 
 412   0.0000       4.413589       120.0999 
 413   0.0000       4.420449       120.2865 
 414   0.0000       4.431531       120.5881 
 415   0.0000       4.464157       121.4759 
 416   0.0000       4.487166       122.1020 
 417   0.0000       4.492878       122.2574 
 418   0.0000       4.514375       122.8424 
 419   0.0000       4.520902       123.0200 
 420   0.0000       4.526817       123.1810 
 421   0.0000       4.545443       123.6878 
 422   0.0000       4.555249       123.9546 
 423   0.0000       4.580838       124.6509 
 424   0.0000       4.584718       124.7565 
 425   0.0000       4.601659       125.2175 
 426   0.0000       4.651063       126.5619 
 427   0.0000       4.664526       126.9282 
 428   0.0000       4.673687       127.1775 
 429   0.0000       4.675612       127.2299 
 430   0.0000       4.694528       127.7446 
 431   0.0000       4.724533       128.5611 
 432   0.0000       4.725905       128.5984 
 433   0.0000       4.765051       129.6636 
 434   0.0000       4.787500       130.2745 
 435   0.0000       4.790309       130.3509 
 436   0.0000       4.805920       130.7757 
 437   0.0000       4.812408       130.9523 
 438   0.0000       4.821354       131.1957 
 439   0.0000       4.828960       131.4027 
 440   0.0000       4.848948       131.9466 
 441   0.0000       4.852307       132.0380 
 442   0.0000       4.896508       133.2407 
 443   0.0000       4.899589       133.3246 
 444   0.0000       4.909298       133.5888 
 445   0.0000       4.939805       134.4189 
 446   0.0000       4.944766       134.5539 
 447   0.0000       4.990039       135.7859 
 448   0.0000       5.020475       136.6141 
 449   0.0000       5.040691       137.1642 
 450   0.0000       5.045314       137.2900 
 451   0.0000       5.073755       138.0639 
 452   0.0000       5.074749       138.0909 
 453   0.0000       5.086476       138.4101 
 454   0.0000       5.087898       138.4488 
 455   0.0000       5.153449       140.2325 
 456   0.0000       5.161805       140.4598 
 457   0.0000       5.190150       141.2311 
 458   0.0000       5.198912       141.4696 
 459   0.0000       5.233943       142.4228 
 460   0.0000       5.264465       143.2534 
 461   0.0000       5.295958       144.1103 
 462   0.0000       5.300066       144.2221 
 463   0.0000       5.318909       144.7349 
 464   0.0000       5.338467       145.2671 
 465   0.0000       5.390769       146.6903 
 466   0.0000       5.419524       147.4728 
 467   0.0000       5.444014       148.1392 
 468   0.0000       5.478721       149.0836 
 469   0.0000       5.493933       149.4975 
 470   0.0000       5.506914       149.8507 
 471   0.0000       5.507622       149.8700 
 472   0.0000       5.521344       150.2434 
 473   0.0000       5.553352       151.1144 
 474   0.0000       5.559462       151.2807 
 475   0.0000       5.572573       151.6374 
 476   0.0000       5.610776       152.6770 
 477   0.0000       5.614829       152.7873 
 478   0.0000       5.637176       153.3954 
 479   0.0000       5.647294       153.6707 
 480   0.0000       5.664530       154.1397 
 481   0.0000       5.704666       155.2319 
 482   0.0000       5.721105       155.6792 
 483   0.0000       5.748149       156.4151 
 484   0.0000       5.786742       157.4653 
 485   0.0000       5.833922       158.7491 
 486   0.0000       5.865000       159.5948 
 487   0.0000       5.867632       159.6664 
 488   0.0000       5.909739       160.8122 
 489   0.0000       5.980123       162.7274 
 490   0.0000       6.206296       168.8819 
 491   0.0000       6.256774       170.2555 
 492   0.0000      23.349475       635.3715 
 493   0.0000      23.368849       635.8987 
 494   0.0000      23.787583       647.2931 
 495   0.0000      23.834532       648.5706 
 496   0.0000      23.835422       648.5948 
 497   0.0000      23.996068       652.9662 
 498   0.0000      24.041175       654.1936 
 499   0.0000      24.062354       654.7699 

                    ********************************
                    * MULLIKEN POPULATION ANALYSIS *
                    ********************************

-----------------------
MULLIKEN ATOMIC CHARGES
-----------------------
   0 C :   -0.312324
   1 C :   -0.202215
   2 C :   -0.202897
   3 H :    0.145278
   4 C :   -0.313042
   5 H :    0.182952
   6 H :    0.182888
   7 H :    0.145016
   8 C :   -0.624135
   9 H :    0.328476
  10 H :    0.271869
  11 C :   -0.377469
  12 H :    0.293343
  13 H :    0.295057
  14 C :   -0.624462
  15 H :    0.271864
  16 H :    0.328528
  17 C :   -0.377086
  18 H :    0.293230
  19 H :    0.295130
Sum of atomic charges:    0.0000000

--------------------------------
MULLIKEN REDUCED ORBITAL CHARGES
--------------------------------
  0 C s       :     3.646538  s :     3.646538
      pz      :     1.025233  p :     2.647015
      px      :     0.750697
      py      :     0.871085
      dz2     :    -0.010255  d :     0.012080
      dxz     :     0.042725
      dyz     :     0.018007
      dx2y2   :    -0.020555
      dxy     :    -0.017843
      f0      :     0.000625  f :     0.006692
      f+1     :     0.000817
      f-1     :     0.000545
      f+2     :     0.000881
      f-2     :     0.001082
      f+3     :     0.001506
      f-3     :     0.001236
  1 C s       :     3.527572  s :     3.527572
      pz      :     0.905818  p :     2.644725
      px      :     0.703306
      py      :     1.035601
      dz2     :     0.013529  d :     0.023216
      dxz     :    -0.015738
      dyz     :    -0.019358
      dx2y2   :     0.007092
      dxy     :     0.037691
      f0      :     0.000706  f :     0.006703
      f+1     :     0.001075
      f-1     :     0.000414
      f+2     :     0.001127
      f-2     :     0.001127
      f+3     :     0.001411
      f-3     :     0.000843
  2 C s       :     3.527883  s :     3.527883
      pz      :     0.905933  p :     2.645087
      px      :     0.703652
      py      :     1.035502
      dz2     :     0.013519  d :     0.023225
      dxz     :    -0.015761
      dyz     :    -0.019388
      dx2y2   :     0.007080
      dxy     :     0.037775
      f0      :     0.000706  f :     0.006703
      f+1     :     0.001075
      f-1     :     0.000414
      f+2     :     0.001127
      f-2     :     0.001127
      f+3     :     0.001411
      f-3     :     0.000843
  3 H s       :     0.811234  s :     0.811234
      pz      :     0.017824  p :     0.041074
      px      :     0.015737
      py      :     0.007513
      dz2     :     0.000548  d :     0.002414
      dxz     :     0.000461
      dyz     :     0.000443
      dx2y2   :     0.000561
      dxy     :     0.000401
  4 C s       :     3.647528  s :     3.647528
      pz      :     1.025132  p :     2.646903
      px      :     0.750454
      py      :     0.871317
      dz2     :    -0.010269  d :     0.011920
      dxz     :     0.042587
      dyz     :     0.018016
      dx2y2   :    -0.020532
      dxy     :    -0.017883
      f0      :     0.000624  f :     0.006692
      f+1     :     0.000818
      f-1     :     0.000545
      f+2     :     0.000881
      f-2     :     0.001082
      f+3     :     0.001506
      f-3     :     0.001236
  5 H s       :     0.773183  s :     0.773183
      pz      :     0.018603  p :     0.041457
      px      :     0.012312
      py      :     0.010543
      dz2     :     0.000391  d :     0.002408
      dxz     :     0.000309
      dyz     :     0.000538
      dx2y2   :     0.000570
      dxy     :     0.000601
  6 H s       :     0.773212  s :     0.773212
      pz      :     0.018644  p :     0.041491
      px      :     0.012329
      py      :     0.010518
      dz2     :     0.000391  d :     0.002408
      dxz     :     0.000309
      dyz     :     0.000538
      dx2y2   :     0.000569
      dxy     :     0.000601
  7 H s       :     0.811491  s :     0.811491
      pz      :     0.017832  p :     0.041079
      px      :     0.015731
      py      :     0.007516
      dz2     :     0.000549  d :     0.002414
      dxz     :     0.000461
      dyz     :     0.000443
      dx2y2   :     0.000561
      dxy     :     0.000401
  8 C s       :     3.345394  s :     3.345394
      pz      :     0.981925  p :     3.154158
      px      :     1.043402
      py      :     1.128830
      dz2     :     0.068617  d :     0.120047
      dxz     :     0.007249
      dyz     :     0.007610
      dx2y2   :     0.001036
      dxy     :     0.035534
      f0      :     0.000265  f :     0.004537
      f+1     :     0.000755
      f-1     :     0.000472
      f+2     :     0.000706
      f-2     :     0.001105
      f+3     :     0.000606
      f-3     :     0.000628
  9 H s       :     0.602758  s :     0.602758
      pz      :     0.010970  p :     0.066318
      px      :     0.026782
      py      :     0.028566
      dz2     :     0.000213  d :     0.002448
      dxz     :     0.000409
      dyz     :     0.000461
      dx2y2   :     0.000861
      dxy     :     0.000504
 10 H s       :     0.686165  s :     0.686165
      pz      :     0.016387  p :     0.039518
      px      :     0.009975
      py      :     0.013156
      dz2     :     0.000684  d :     0.002448
      dxz     :     0.000612
      dyz     :     0.000617
      dx2y2   :     0.000231
      dxy     :     0.000304
 11 C s       :     3.328775  s :     3.328775
      pz      :     1.133765  p :     3.019023
      px      :     1.000417
      py      :     0.884841
      dz2     :     0.003674  d :     0.025128
      dxz     :     0.029571
      dyz     :    -0.016824
      dx2y2   :    -0.008307
      dxy     :     0.017014
      f0      :     0.000275  f :     0.004543
      f+1     :     0.000446
      f-1     :     0.000568
      f+2     :     0.000511
      f-2     :     0.001132
      f+3     :     0.000732
      f-3     :     0.000879
 12 H s       :     0.646427  s :     0.646427
      pz      :     0.026905  p :     0.057818
      px      :     0.016126
      py      :     0.014787
      dz2     :     0.000629  d :     0.002412
      dxz     :     0.000459
      dyz     :     0.000421
      dx2y2   :     0.000371
      dxy     :     0.000531
 13 H s       :     0.642532  s :     0.642532
      pz      :     0.025032  p :     0.059982
      px      :     0.020973
      py      :     0.013978
      dz2     :     0.000709  d :     0.002429
      dxz     :     0.000501
      dyz     :     0.000539
      dx2y2   :     0.000304
      dxy     :     0.000377
 14 C s       :     3.345907  s :     3.345907
      pz      :     0.981736  p :     3.153978
      px      :     1.043433
      py      :     1.128809
      dz2     :     0.068622  d :     0.120040
      dxz     :     0.007243
      dyz     :     0.007663
      dx2y2   :     0.001043
      dxy     :     0.035470
      f0      :     0.000265  f :     0.004537
      f+1     :     0.000755
      f-1     :     0.000472
      f+2     :     0.000706
      f-2     :     0.001105
      f+3     :     0.000605
      f-3     :     0.000628
 15 H s       :     0.686173  s :     0.686173
      pz      :     0.016357  p :     0.039515
      px      :     0.009990
      py      :     0.013168
      dz2     :     0.000684  d :     0.002448
      dxz     :     0.000612
      dyz     :     0.000617
      dx2y2   :     0.000231
      dxy     :     0.000305
 16 H s       :     0.602697  s :     0.602697
      pz      :     0.010977  p :     0.066327
      px      :     0.026785
      py      :     0.028565
      dz2     :     0.000213  d :     0.002448
      dxz     :     0.000409
      dyz     :     0.000461
      dx2y2   :     0.000861
      dxy     :     0.000504
 17 C s       :     3.328763  s :     3.328763
      pz      :     1.133837  p :     3.018658
      px      :     1.000008
      py      :     0.884814
      dz2     :     0.003640  d :     0.025122
      dxz     :     0.029692
      dyz     :    -0.016859
      dx2y2   :    -0.008353
      dxy     :     0.017001
      f0      :     0.000275  f :     0.004543
      f+1     :     0.000446
      f-1     :     0.000568
      f+2     :     0.000511
      f-2     :     0.001133
      f+3     :     0.000732
      f-3     :     0.000879
 18 H s       :     0.646523  s :     0.646523
      pz      :     0.026913  p :     0.057835
      px      :     0.016120
      py      :     0.014802
      dz2     :     0.000630  d :     0.002412
      dxz     :     0.000459
      dyz     :     0.000422
      dx2y2   :     0.000371
      dxy     :     0.000530
 19 H s       :     0.642512  s :     0.642512
      pz      :     0.025013  p :     0.059929
      px      :     0.020949
      py      :     0.013967
      dz2     :     0.000709  d :     0.002429
      dxz     :     0.000500
      dyz     :     0.000539
      dx2y2   :     0.000304
      dxy     :     0.000377


                     *******************************
                     * LOEWDIN POPULATION ANALYSIS *
                     *******************************

----------------------
LOEWDIN ATOMIC CHARGES
----------------------
   0 C :    0.005541
   1 C :    0.010596
   2 C :    0.010622
   3 H :   -0.004075
   4 C :    0.005545
   5 H :   -0.002914
   6 H :   -0.002929
   7 H :   -0.004079
   8 C :   -0.028798
   9 H :    0.011613
  10 H :   -0.004195
  11 C :   -0.022543
  12 H :    0.018205
  13 H :    0.016550
  14 C :   -0.028781
  15 H :   -0.004189
  16 H :    0.011617
  17 C :   -0.022537
  18 H :    0.018213
  19 H :    0.016537

-------------------------------
LOEWDIN REDUCED ORBITAL CHARGES
-------------------------------
  0 C s       :     2.658407  s :     2.658407
      pz      :     0.806220  p :     2.587341
      px      :     0.937043
      py      :     0.844079
      dz2     :     0.071303  d :     0.708586
      dxz     :     0.159796
      dyz     :     0.102144
      dx2y2   :     0.158817
      dxy     :     0.216525
      f0      :     0.003706  f :     0.040124
      f+1     :     0.004721
      f-1     :     0.003947
      f+2     :     0.005326
      f-2     :     0.005111
      f+3     :     0.008228
      f-3     :     0.009084
  1 C s       :     2.655934  s :     2.655934
      pz      :     0.806136  p :     2.589454
      px      :     0.932513
      py      :     0.850804
      dz2     :     0.099680  d :     0.703765
      dxz     :     0.179586
      dyz     :     0.085085
      dx2y2   :     0.171588
      dxy     :     0.167827
      f0      :     0.004943  f :     0.040251
      f+1     :     0.005431
      f-1     :     0.002594
      f+2     :     0.007369
      f-2     :     0.004616
      f+3     :     0.008590
      f-3     :     0.006709
  2 C s       :     2.655935  s :     2.655935
      pz      :     0.806118  p :     2.589457
      px      :     0.932522
      py      :     0.850818
      dz2     :     0.099655  d :     0.703736
      dxz     :     0.179564
      dyz     :     0.085065
      dx2y2   :     0.171633
      dxy     :     0.167819
      f0      :     0.004943  f :     0.040249
      f+1     :     0.005430
      f-1     :     0.002592
      f+2     :     0.007368
      f-2     :     0.004615
      f+3     :     0.008591
      f-3     :     0.006710
  3 H s       :     0.701082  s :     0.701082
      pz      :     0.097545  p :     0.273318
      px      :     0.087068
      py      :     0.088704
      dz2     :     0.006379  d :     0.029675
      dxz     :     0.006221
      dyz     :     0.006469
      dx2y2   :     0.005465
      dxy     :     0.005141
  4 C s       :     2.658406  s :     2.658406
      pz      :     0.806313  p :     2.587349
      px      :     0.937008
      py      :     0.844028
      dz2     :     0.071361  d :     0.708575
      dxz     :     0.159837
      dyz     :     0.102131
      dx2y2   :     0.158789
      dxy     :     0.216457
      f0      :     0.003704  f :     0.040125
      f+1     :     0.004726
      f-1     :     0.003950
      f+2     :     0.005327
      f-2     :     0.005110
      f+3     :     0.008225
      f-3     :     0.009082
  5 H s       :     0.700323  s :     0.700323
      pz      :     0.088892  p :     0.272816
      px      :     0.076530
      py      :     0.107394
      dz2     :     0.004774  d :     0.029775
      dxz     :     0.003082
      dyz     :     0.008169
      dx2y2   :     0.006937
      dxy     :     0.006813
  6 H s       :     0.700323  s :     0.700323
      pz      :     0.088903  p :     0.272830
      px      :     0.076524
      py      :     0.107402
      dz2     :     0.004776  d :     0.029776
      dxz     :     0.003083
      dyz     :     0.008170
      dx2y2   :     0.006936
      dxy     :     0.006812
  7 H s       :     0.701086  s :     0.701086
      pz      :     0.097570  p :     0.273318
      px      :     0.087059
      py      :     0.088689
      dz2     :     0.006385  d :     0.029676
      dxz     :     0.006224
      dyz     :     0.006472
      dx2y2   :     0.005459
      dxy     :     0.005136
  8 C s       :     2.609612  s :     2.609612
      pz      :     0.887260  p :     2.636911
      px      :     0.874112
      py      :     0.875539
      dz2     :     0.141112  d :     0.741697
      dxz     :     0.157912
      dyz     :     0.137669
      dx2y2   :     0.108604
      dxy     :     0.196401
      f0      :     0.004227  f :     0.040578
      f+1     :     0.006801
      f-1     :     0.005885
      f+2     :     0.005590
      f-2     :     0.006034
      f+3     :     0.006338
      f-3     :     0.005703
  9 H s       :     0.687313  s :     0.687313
      pz      :     0.077236  p :     0.270571
      px      :     0.093274
      py      :     0.100061
      dz2     :     0.003223  d :     0.030503
      dxz     :     0.004868
      dyz     :     0.006030
      dx2y2   :     0.008517
      dxy     :     0.007865
 10 H s       :     0.671157  s :     0.671157
      pz      :     0.106661  p :     0.301949
      px      :     0.096713
      py      :     0.098574
      dz2     :     0.010001  d :     0.031089
      dxz     :     0.008008
      dyz     :     0.007468
      dx2y2   :     0.002354
      dxy     :     0.003258
 11 C s       :     2.618950  s :     2.618950
      pz      :     0.894570  p :     2.636964
      px      :     0.874201
      py      :     0.868193
      dz2     :     0.083357  d :     0.726593
      dxz     :     0.161763
      dyz     :     0.165992
      dx2y2   :     0.155052
      dxy     :     0.160429
      f0      :     0.004112  f :     0.040035
      f+1     :     0.004824
      f-1     :     0.006141
      f+2     :     0.005450
      f-2     :     0.006139
      f+3     :     0.005879
      f-3     :     0.007490
 12 H s       :     0.684429  s :     0.684429
      pz      :     0.095002  p :     0.267442
      px      :     0.095545
      py      :     0.076895
      dz2     :     0.006964  d :     0.029925
      dxz     :     0.007612
      dyz     :     0.004724
      dx2y2   :     0.004991
      dxy     :     0.005634
 13 H s       :     0.681649  s :     0.681649
      pz      :     0.104660  p :     0.271436
      px      :     0.084253
      py      :     0.082523
      dz2     :     0.008284  d :     0.030365
      dxz     :     0.007749
      dyz     :     0.006647
      dx2y2   :     0.003470
      dxy     :     0.004215
 14 C s       :     2.609608  s :     2.609608
      pz      :     0.887250  p :     2.636905
      px      :     0.874109
      py      :     0.875546
      dz2     :     0.141047  d :     0.741689
      dxz     :     0.157961
      dyz     :     0.137754
      dx2y2   :     0.108588
      dxy     :     0.196339
      f0      :     0.004229  f :     0.040580
      f+1     :     0.006802
      f-1     :     0.005885
      f+2     :     0.005590
      f-2     :     0.006037
      f+3     :     0.006336
      f-3     :     0.005701
 15 H s       :     0.671137  s :     0.671137
      pz      :     0.106632  p :     0.301964
      px      :     0.096731
      py      :     0.098601
      dz2     :     0.009997  d :     0.031088
      dxz     :     0.008005
      dyz     :     0.007465
      dx2y2   :     0.002359
      dxy     :     0.003262
 16 H s       :     0.687321  s :     0.687321
      pz      :     0.077244  p :     0.270560
      px      :     0.093261
      py      :     0.100054
      dz2     :     0.003226  d :     0.030503
      dxz     :     0.004868
      dyz     :     0.006032
      dx2y2   :     0.008513
      dxy     :     0.007863
 17 C s       :     2.618947  s :     2.618947
      pz      :     0.894581  p :     2.636970
      px      :     0.874198
      py      :     0.868191
      dz2     :     0.083348  d :     0.726584
      dxz     :     0.161792
      dyz     :     0.165966
      dx2y2   :     0.155041
      dxy     :     0.160437
      f0      :     0.004111  f :     0.040036
      f+1     :     0.004826
      f-1     :     0.006141
      f+2     :     0.005449
      f-2     :     0.006141
      f+3     :     0.005878
      f-3     :     0.007491
 18 H s       :     0.684420  s :     0.684420
      pz      :     0.095022  p :     0.267442
      px      :     0.095520
      py      :     0.076900
      dz2     :     0.006967  d :     0.029925
      dxz     :     0.007612
      dyz     :     0.004728
      dx2y2   :     0.004987
      dxy     :     0.005631
 19 H s       :     0.681660  s :     0.681660
      pz      :     0.104651  p :     0.271438
      px      :     0.084273
      py      :     0.082514
      dz2     :     0.008282  d :     0.030366
      dxz     :     0.007749
      dyz     :     0.006644
      dx2y2   :     0.003473
      dxy     :     0.004218


                      *****************************
                      * MAYER POPULATION ANALYSIS *
                      *****************************

  NA   - Mulliken gross atomic population
  ZA   - Total nuclear charge
  QA   - Mulliken gross atomic charge
  VA   - Mayer's total valence
  BVA  - Mayer's bonded valence
  FA   - Mayer's free valence

  ATOM       NA         ZA         QA         VA         BVA        FA
  0 C      6.3123     6.0000    -0.3123     3.0601     3.0601     0.0000
  1 C      6.2022     6.0000    -0.2022     2.8023     2.8023     0.0000
  2 C      6.2029     6.0000    -0.2029     2.8032     2.8032    -0.0000
  3 H      0.8547     1.0000     0.1453     1.0010     1.0010     0.0000
  4 C      6.3130     6.0000    -0.3130     3.0590     3.0590     0.0000
  5 H      0.8170     1.0000     0.1830     0.9832     0.9832     0.0000
  6 H      0.8171     1.0000     0.1829     0.9832     0.9832    -0.0000
  7 H      0.8550     1.0000     0.1450     1.0012     1.0012     0.0000
  8 C      6.6241     6.0000    -0.6241     3.3595     3.3595     0.0000
  9 H      0.6715     1.0000     0.3285     1.0406     1.0406     0.0000
 10 H      0.7281     1.0000     0.2719     0.9501     0.9501    -0.0000
 11 C      6.3775     6.0000    -0.3775     3.0162     3.0162     0.0000
 12 H      0.7067     1.0000     0.2933     0.9773     0.9773    -0.0000
 13 H      0.7049     1.0000     0.2951     1.0097     1.0097     0.0000
 14 C      6.6245     6.0000    -0.6245     3.3589     3.3589    -0.0000
 15 H      0.7281     1.0000     0.2719     0.9500     0.9500     0.0000
 16 H      0.6715     1.0000     0.3285     1.0405     1.0405    -0.0000
 17 C      6.3771     6.0000    -0.3771     3.0145     3.0145    -0.0000
 18 H      0.7068     1.0000     0.2932     0.9775     0.9775    -0.0000
 19 H      0.7049     1.0000     0.2951     1.0095     1.0095    -0.0000

  Mayer bond orders larger than 0.100000
B(  0-C ,  2-C ) :   1.2482 B(  0-C ,  3-H ) :   1.1427 B(  0-C , 11-C ) :   0.6984 
B(  1-C ,  4-C ) :   1.2478 B(  1-C ,  5-H ) :   1.0749 B(  1-C , 14-C ) :   0.6352 
B(  1-C , 17-C ) :  -0.1098 B(  2-C ,  6-H ) :   1.0750 B(  2-C ,  8-C ) :   0.6355 
B(  2-C , 11-C ) :  -0.1097 B(  4-C ,  7-H ) :   1.1432 B(  4-C , 17-C ) :   0.6975 
B(  8-C ,  9-H ) :   1.0114 B(  8-C , 10-H ) :   1.0144 B(  8-C , 14-C ) :   0.1822 
B(  8-C , 17-C ) :   0.5673 B( 11-C , 12-H ) :   0.9525 B( 11-C , 13-H ) :   0.9807 
B( 11-C , 14-C ) :   0.5677 B( 14-C , 15-H ) :   1.0145 B( 14-C , 16-H ) :   1.0113 
B( 17-C , 18-H ) :   0.9527 B( 17-C , 19-H ) :   0.9805 

-------
TIMINGS
-------

Total SCF time: 0 days 0 hours 2 min 9 sec 

Total time                  ....     129.144 sec
Sum of individual times     ....     128.535 sec  ( 99.5%)

Fock matrix formation       ....     127.068 sec  ( 98.4%)
  XC integration            ....       4.174 sec  (  3.3% of F)
    Basis function eval.    ....       0.386 sec  (  9.3% of XC)
    Density eval.           ....       1.155 sec  ( 27.7% of XC)
    XC-Functional eval.     ....       0.060 sec  (  1.4% of XC)
    XC-Potential eval.      ....       1.879 sec  ( 45.0% of XC)
Diagonalization             ....       0.249 sec  (  0.2%)
Density matrix formation    ....       0.027 sec  (  0.0%)
Population analysis         ....       0.042 sec  (  0.0%)
Initial guess               ....       0.323 sec  (  0.2%)
Orbital Transformation      ....       0.000 sec  (  0.0%)
Orbital Orthonormalization  ....       0.000 sec  (  0.0%)
DIIS solution               ....       0.101 sec  (  0.1%)
SOSCF solution              ....       0.270 sec  (  0.2%)
Grid generation             ....       0.453 sec  (  0.4%)

-------------------------   --------------------
FINAL SINGLE POINT ENERGY      -311.987601194459
-------------------------   --------------------


                            ***************************************
                            *     ORCA property calculations      *
                            ***************************************

                                    ---------------------
                                    Active property flags
                                    ---------------------
   (+) Dipole Moment


------------------------------------------------------------------------------
                       ORCA ELECTRIC PROPERTIES CALCULATION
------------------------------------------------------------------------------

Dipole Moment Calculation                       ... on
Quadrupole Moment Calculation                   ... off
Polarizability Calculation                      ... off
GBWName                                         ... MOR06_cod.gbw
Electron density file                           ... MOR06_cod.scfp
The origin for moment calculation is the CENTER OF MASS  = ( 0.000005, -0.000005 -0.015873)

-------------
DIPOLE MOMENT
-------------
                                X             Y             Z
Electronic contribution:      0.00031      -0.00032      -0.85126
Nuclear contribution   :     -0.00029       0.00032       0.95237
                        -----------------------------------------
Total Dipole Moment    :      0.00002      -0.00000       0.10112
                        -----------------------------------------
Magnitude (a.u.)       :      0.10112
Magnitude (Debye)      :      0.25701



--------------------
Rotational spectrum 
--------------------
 
Rotational constants in cm-1:     0.087291     0.074989     0.047810 
Rotational constants in MHz :  2616.931187  2248.128417  1433.302108 

 Dipole components along the rotational axes: 
x,y,z [a.u.] :    -0.000018    -0.000003     0.101115 
x,y,z [Debye]:    -0.000045    -0.000008     0.257014 

 

Timings for individual modules:

Sum of individual times         ...      130.344 sec (=   2.172 min)
GTO integral calculation        ...        0.839 sec (=   0.014 min)   0.6 %
SCF iterations                  ...      129.505 sec (=   2.158 min)  99.4 %
                             ****ORCA TERMINATED NORMALLY****
TOTAL RUN TIME: 0 days 0 hours 2 minutes 10 seconds 894 msec
