
                                 *****************
                                 * O   R   C   A *
                                 *****************

           --- An Ab Initio, DFT and Semiempirical electronic structure package ---

                  #######################################################
                  #                        -***-                        #
                  #          Department of theory and spectroscopy      #
                  #               Directorship: Frank Neese             #
                  #        Max Planck Institute fuer Kohlenforschung    #
                  #                Kaiser Wilhelm Platz 1               #
                  #                 D-45470 Muelheim/Ruhr               #
                  #                      Germany                        #
                  #                                                     #
                  #                  All rights reserved                #
                  #                        -***-                        #
                  #######################################################


                         Program Version 4.2.0 -  RELEASE  -


 With contributions from (in alphabetic order):
   Daniel Aravena         : Magnetic Suceptibility
   Michael Atanasov       : Ab Initio Ligand Field Theory (pilot matlab implementation)
   Alexander A. Auer      : GIAO ZORA, VPT2
   Ute Becker             : Parallelization
   Giovanni Bistoni       : ED, misc. LED, open-shell LED, HFLED
   Martin Brehm           : Molecular dynamics
   Dmytro Bykov           : SCF Hessian
   Vijay G. Chilkuri      : MRCI spin determinant printing, contributions to CSF-ICE
   Dipayan Datta          : RHF DLPNO-CCSD density
   Achintya Kumar Dutta   : EOM-CC, STEOM-CC
   Dmitry Ganyushin       : Spin-Orbit,Spin-Spin,Magnetic field MRCI
   Miquel Garcia          : C-PCM Hessian, Gaussian charge scheme
   Yang Guo               : DLPNO-NEVPT2, CIM, IAO-localization
   Andreas Hansen         : Spin unrestricted coupled pair/coupled cluster methods
   Benjamin Helmich-Paris : CASSCF linear response (MC-RPA)
   Lee Huntington         : MR-EOM, pCC
   Robert Izsak           : Overlap fitted RIJCOSX, COSX-SCS-MP3, EOM
   Christian Kollmar      : KDIIS, OOCD, Brueckner-CCSD(T), CCSD density
   Simone Kossmann        : Meta GGA functionals, TD-DFT gradient, OOMP2, MP2 Hessian
   Martin Krupicka        : AUTO-CI
   Lucas Lang             : DCDCAS
   Dagmar Lenk            : GEPOL surface, SMD
   Dimitrios Liakos       : Extrapolation schemes; Compound Job, initial MDCI parallelization
   Dimitrios Manganas     : Further ROCIS development; embedding schemes
   Dimitrios Pantazis     : SARC Basis sets
   Taras Petrenko         : DFT Hessian,TD-DFT gradient, ASA, ECA, R-Raman, ABS, FL, XAS/XES, NRVS
   Peter Pinski           : DLPNO-MP2, DLPNO-MP2 Gradient
   Christoph Reimann      : Effective Core Potentials
   Marius Retegan         : Local ZFS, SOC
   Christoph Riplinger    : Optimizer, TS searches, QM/MM, DLPNO-CCSD(T), (RO)-DLPNO pert. Triples
   Tobias Risthaus        : Range-separated hybrids, TD-DFT gradient, RPA, STAB
   Michael Roemelt        : Original ROCIS implementation
   Masaaki Saitow         : Open-shell DLPNO-CCSD energy and density
   Barbara Sandhoefer     : DKH picture change effects
   Avijit Sen             : IP-ROCIS
   Kantharuban Sivalingam : CASSCF convergence, NEVPT2, FIC-MRCI
   Bernardo de Souza      : ESD, SOC TD-DFT
   Georgi Stoychev        : AutoAux, RI-MP2 NMR
   Willem Van den Heuvel  : Paramagnetic NMR
   Boris Wezisla          : Elementary symmetry handling
   Frank Wennmohs         : Technical directorship


 We gratefully acknowledge several colleagues who have allowed us to
 interface, adapt or use parts of their codes:
   Stefan Grimme, W. Hujo, H. Kruse,             : VdW corrections, initial TS optimization,
                  C. Bannwarth                     DFT functionals, gCP, sTDA/sTD-DF
   Ed Valeev, F. Pavosevic, A. Kumar             : LibInt (2-el integral package), F12 methods
   Garnet Chan, S. Sharma, J. Yang, R. Olivares  : DMRG
   Ulf Ekstrom                                   : XCFun DFT Library
   Mihaly Kallay                                 : mrcc  (arbitrary order and MRCC methods)
   Andreas Klamt, Michael Diedenhofen            : otool_cosmo (COSMO solvation model)
   Jiri Pittner, Ondrej Demel                    : Mk-CCSD
   Frank Weinhold                                : gennbo (NPA and NBO analysis)
   Christopher J. Cramer and Donald G. Truhlar   : smd solvation model
   Lars Goerigk                                  : TD-DFT with DH, B97 family of functionals
   V. Asgeirsson, H. Jonsson                     : NEB implementation
   FAccTs GmbH                                   : IRC, NEB, NEB-TS, Multilevel, MM, QM/MM, CI optimization
   S Lehtola, MJT Oliveira, MAL Marques          : LibXC Library


 Your calculation uses the libint2 library for the computation of 2-el integrals
 For citations please refer to: http://libint.valeyev.net

 Your ORCA version has been built with support for libXC version: 4.2.3
 For citations please refer to: https://tddft.org/programs/libxc/

 This ORCA versions uses:
   CBLAS   interface :  Fast vector & matrix operations
   LAPACKE interface :  Fast linear algebra routines
   SCALAPACK package :  Parallel linear algebra routines


Your calculation utilizes the DFT-NL dispersion correction.
Cite in your paper:
Vydrov, O. A.; Van Voorhis, T. J. Chem. Phys. 2010, 133, 244103
Hujo, W.; Grimme, S. J. Chem. Theory Comput. 2011, 7, 3866 
   

----- Orbital basis set information -----
Your calculation utilizes the basis: def2-TZVPPD
   F. Weigend and R. Ahlrichs, Phys. Chem. Chem. Phys. 7, 3297 (2005).
   D. Rappoport and F. Furche, J. Chem. Phys. 133 134105 (2010).

----- AuxJK basis set information -----
Your calculation utilizes the auxiliary basis: def2/JK
   H-Ba, Hf-Rn: F. Weigend, J. Comput. Chem. 29, 167 (2008).

================================================================================
                                        WARNINGS
                       Please study these warnings very carefully!
================================================================================


INFO   : the flag for use of LIBINT has been found!

================================================================================
                                       INPUT FILE
================================================================================
NAME = MOR08_ed05.in
|  1> #
|  2> # MOR08_ed05 wB97M-V/Def2-TZVPPD
|  3> #
|  4> ! wb97m-v def2-tzvppd def2/jk grid4 nofinalgrid
|  5> 
|  6> *xyz 0 1
|  7> Mn      -0.000015    0.000034   -0.156112 
|  8> O       -2.966556    0.069032   -0.568565 
|  9> C       -1.835048    0.042703   -0.376221 
| 10> C        0.000106   -0.000266    1.691489 
| 11> O        0.000196   -0.000501    2.842648 
| 12> C        1.835004   -0.042558   -0.376374 
| 13> O        2.966501   -0.068795   -0.568793 
| 14> C        0.042608    1.834986   -0.376689 
| 15> O        0.068875    2.966413   -0.569532 
| 16> C       -0.042655   -1.834886   -0.377054 
| 17> O       -0.068962   -2.966280   -0.570073 
| 18> H       -0.000145    0.000318   -1.733571 
| 19> *
| 20> 
| 21> %maxcore 5000
| 22> 
| 23> %pal
| 24> nprocs = 24
| 25> end
| 26> 
| 27> 
| 28>                          ****END OF INPUT****
================================================================================

                       ****************************
                       * Single Point Calculation *
                       ****************************

---------------------------------
CARTESIAN COORDINATES (ANGSTROEM)
---------------------------------
  Mn    -0.000015    0.000034   -0.156112
  O     -2.966556    0.069032   -0.568565
  C     -1.835048    0.042703   -0.376221
  C      0.000106   -0.000266    1.691489
  O      0.000196   -0.000501    2.842648
  C      1.835004   -0.042558   -0.376374
  O      2.966501   -0.068795   -0.568793
  C      0.042608    1.834986   -0.376689
  O      0.068875    2.966413   -0.569532
  C     -0.042655   -1.834886   -0.377054
  O     -0.068962   -2.966280   -0.570073
  H     -0.000145    0.000318   -1.733571

----------------------------
CARTESIAN COORDINATES (A.U.)
----------------------------
  NO LB      ZA    FRAG     MASS         X           Y           Z
   0 Mn   25.0000    0    54.940   -0.000028    0.000064   -0.295009
   1 O     8.0000    0    15.999   -5.605978    0.130452   -1.074432
   2 C     6.0000    0    12.011   -3.467738    0.080697   -0.710955
   3 C     6.0000    0    12.011    0.000200   -0.000503    3.196451
   4 O     8.0000    0    15.999    0.000370   -0.000947    5.371826
   5 C     6.0000    0    12.011    3.467655   -0.080423   -0.711244
   6 O     8.0000    0    15.999    5.605874   -0.130004   -1.074863
   7 C     6.0000    0    12.011    0.080517    3.467621   -0.711839
   8 O     8.0000    0    15.999    0.130155    5.605708   -1.076260
   9 C     6.0000    0    12.011   -0.080606   -3.467432   -0.712529
  10 O     8.0000    0    15.999   -0.130319   -5.605457   -1.077282
  11 H     1.0000    0     1.008   -0.000274    0.000601   -3.275974

--------------------------------
INTERNAL COORDINATES (ANGSTROEM)
--------------------------------
 Mn     0   0   0     0.000000000000     0.00000000     0.00000000
 O      1   0   0     2.995871109693     0.00000000     0.00000000
 C      2   1   0     1.148041717291     1.73161333     0.00000000
 C      1   2   3     1.847601028318    97.91722965     0.00000000
 O      4   1   2     1.151159027505   179.99749875   108.23266519
 C      1   2   3     1.848681735040   165.24395151   179.99165883
 O      6   1   4     1.148041337557   177.19411049   180.01700720
 C      1   2   3     1.848653503327    89.05705601   263.19308037
 O      8   1   2     1.148044177838   177.18260780   277.87169018
 C      1   2   3     1.848665719746    89.05837728    96.78041205
 O     10   1   2     1.148042148985   177.18502860    82.12677139
 H      1   2   3     1.577459030922    82.08177762   179.99122719

---------------------------
INTERNAL COORDINATES (A.U.)
---------------------------
 Mn     0   0   0     0.000000000000     0.00000000     0.00000000
 O      1   0   0     5.661375929847     0.00000000     0.00000000
 C      2   1   0     2.169484435997     1.73161333     0.00000000
 C      1   2   3     3.491459948272    97.91722965     0.00000000
 O      4   1   2     2.175375298575   179.99749875   108.23266519
 C      1   2   3     3.493502188007   165.24395151   179.99165883
 O      6   1   4     2.169483718403   177.19411049   180.01700720
 C      1   2   3     3.493448837802    89.05705601   263.19308037
 O      8   1   2     2.169489085756   177.18260780   277.87169018
 C      1   2   3     3.493471923488    89.05837728    96.78041205
 O     10   1   2     2.169485251780   177.18502860    82.12677139
 H      1   2   3     2.980965555923    82.08177762   179.99122719

---------------------
BASIS SET INFORMATION
---------------------
There are 4 groups of distinct atoms

 Group   1 Type Mn  : 17s13p7d2f1g contracted to 6s6p4d2f1g pattern {842111/631111/4111/11/1}
 Group   2 Type O   : 12s7p3d1f contracted to 6s4p3d1f pattern {621111/4111/111/1}
 Group   3 Type C   : 12s6p3d1f contracted to 6s3p3d1f pattern {621111/411/111/1}
 Group   4 Type H   : 5s3p1d contracted to 3s3p1d pattern {311/111/1}

Atom   0Mn   basis set group =>   1
Atom   1O    basis set group =>   2
Atom   2C    basis set group =>   3
Atom   3C    basis set group =>   3
Atom   4O    basis set group =>   2
Atom   5C    basis set group =>   3
Atom   6O    basis set group =>   2
Atom   7C    basis set group =>   3
Atom   8O    basis set group =>   2
Atom   9C    basis set group =>   3
Atom  10O    basis set group =>   2
Atom  11H    basis set group =>   4
----------------------------------
AUXILIARY/JK BASIS SET INFORMATION
----------------------------------
There are 4 groups of distinct atoms

 Group   1 Type Mn  : 19s14p12d10f7g3h1i contracted to 16s13p11d9f5g3h1i pattern {4111111111111111/2111111111111/21111111111/211111111/31111/111/1}
 Group   2 Type O   : 14s10p6d2f1g contracted to 10s8p4d2f1g pattern {5111111111/31111111/3111/11/1}
 Group   3 Type C   : 14s10p6d2f1g contracted to 10s8p5d1f1g pattern {5111111111/31111111/21111/2/1}
 Group   4 Type H   : 4s2p2d contracted to 2s2p2d pattern {31/11/11}

Atom   0Mn   basis set group =>   1
Atom   1O    basis set group =>   2
Atom   2C    basis set group =>   3
Atom   3C    basis set group =>   3
Atom   4O    basis set group =>   2
Atom   5C    basis set group =>   3
Atom   6O    basis set group =>   2
Atom   7C    basis set group =>   3
Atom   8O    basis set group =>   2
Atom   9C    basis set group =>   3
Atom  10O    basis set group =>   2
Atom  11H    basis set group =>   4


           ************************************************************
           *        Program running with 24 parallel MPI-processes    *
           *              working on a common directory               *
           ************************************************************
------------------------------------------------------------------------------
                           ORCA GTO INTEGRAL CALCULATION
------------------------------------------------------------------------------

                         BASIS SET STATISTICS AND STARTUP INFO

 # of primitive gaussian shells          ...  274
 # of primitive gaussian functions       ...  668
 # of contracted shells                  ...  161
 # of contracted basis functions         ...  469
 Highest angular momentum                ...    4
 Maximum contraction depth               ...    8
 Integral package used                   ... LIBINT
 Integral threshhold            Thresh   ...  1.000e-10
 Primitive cut-off              TCut     ...  1.000e-11


------------------------------ INTEGRAL EVALUATION ----------------------------


 * One electron integrals 
 Pre-screening matrix                    ... done
 Shell pair data                         ... done (   0.003 sec)



           ************************************************************
           *        Program running with 24 parallel MPI-processes    *
           *              working on a common directory               *
           ************************************************************
-------------------------------------------------------------------------------
                                 ORCA SCF
-------------------------------------------------------------------------------

------------
SCF SETTINGS
------------
Hamiltonian:
 Density Functional     Method          .... DFT(GTOs)
 Exchange Functional    Exchange        .... WB97M-V
 Correlation Functional Correlation     .... WB97M-V
 Gradients option       PostSCFGGA      .... off
 Hybrid DFT is turned on
   Fraction HF Exchange ScalHFX         ....  0.150000
   Scaling of DF-GGA-X  ScalDFX         ....  0.000000
   Scaling of DF-GGA-C  ScalDFC         ....  1.000000
   Scaling of DF-LDA-C  ScalLDAC        ....  1.000000
   Perturbative correction              ....  0.000000
   Density functional embedding theory  .... OFF
 Long-range corrected/Screened/Range-Separated Hybrid DFT is turned on
   Amount of maximum screened exact exchange              ....  0.850000
   Range separation parameter mu (erf(mu*r12)/r12)        ....  0.300000
   NL short-range parameter             ....  6.000000
   NL long-range parameter              ....  0.010000


General Settings:
 Integral files         IntName         .... MOR08_ed05
 Hartree-Fock type      HFTyp           .... RHF
 Total Charge           Charge          ....    0
 Multiplicity           Mult            ....    1
 Number of Electrons    NEL             ....   96
 Basis Dimension        Dim             ....  469
 Nuclear Repulsion      ENuc            ....    797.8872903274 Eh

Convergence Acceleration:
 DIIS                   CNVDIIS         .... on
   Start iteration      DIISMaxIt       ....    12
   Startup error        DIISStart       ....  0.200000
   # of expansion vecs  DIISMaxEq       ....     5
   Bias factor          DIISBfac        ....   1.050
   Max. coefficient     DIISMaxC        ....  10.000
 Newton-Raphson         CNVNR           .... off
 SOSCF                  CNVSOSCF        .... off
 Level Shifting         CNVShift        .... on
   Level shift para.    LevelShift      ....    0.2500
   Turn off err/grad.   ShiftErr        ....    0.0010
 Zerner damping         CNVZerner       .... off
 Static damping         CNVDamp         .... on
   Fraction old density DampFac         ....    0.7000
   Max. Damping (<1)    DampMax         ....    0.9800
   Min. Damping (>=0)   DampMin         ....    0.0000
   Turn off err/grad.   DampErr         ....    0.1000
 Fernandez-Rico         CNVRico         .... off

SCF Procedure:
 Maximum # iterations   MaxIter         ....   125
 SCF integral mode      SCFMode         .... Direct
   Integral package                     .... LIBINT
 Reset frequency        DirectResetFreq ....    20
 Integral Threshold     Thresh          ....  1.000e-10 Eh
 Primitive CutOff       TCut            ....  1.000e-11 Eh

Convergence Tolerance:
 Convergence Check Mode ConvCheckMode   .... Total+1el-Energy
 Convergence forced     ConvForced      .... 0
 Energy Change          TolE            ....  1.000e-06 Eh
 1-El. energy change                    ....  1.000e-03 Eh
 DIIS Error             TolErr          ....  1.000e-06


Diagonalization of the overlap matrix:
Smallest eigenvalue                        ... 1.809e-06
Time for diagonalization                   ...    0.036 sec
Threshold for overlap eigenvalues          ... 1.000e-08
Number of eigenvalues below threshold      ... 0
Time for construction of square roots      ...    0.030 sec
Total time needed                          ...    0.068 sec

-------------------
DFT GRID GENERATION
-------------------

General Integration Accuracy     IntAcc      ...  4.670
Radial Grid Type                 RadialGrid  ... Gauss-Chebyshev
Angular Grid (max. acc.)         AngularGrid ... Lebedev-302
Angular grid pruning method      GridPruning ... 3 (G Style)
Weight generation scheme         WeightScheme... Becke
Basis function cutoff            BFCut       ...    1.0000e-10
Integration weight cutoff        WCut        ...    1.0000e-14
Grids for H and He will be reduced by one unit

# of grid points (after initial pruning)     ...  75178 (   0.0 sec)
# of grid points (after weights+screening)   ...  70507 (   0.0 sec)
nearest neighbour list constructed           ...    0.0 sec
Grid point re-assignment to atoms done       ...    0.0 sec
Grid point division into batches done        ...    0.4 sec
Reduced shell lists constructed in    0.4 sec

Total number of grid points                  ...    70507
Total number of batches                      ...     1106
Average number of points per batch           ...       63
Average number of grid points per atom       ...     5876
Average number of shells per batch           ...   123.69 (76.82%)
Average number of basis functions per batch  ...   376.60 (80.30%)
Average number of large shells per batch     ...   107.50 (86.91%)
Average number of large basis fcns per batch ...   325.58 (86.45%)
Maximum spatial batch extension              ...   1.38,  1.38,  1.24 au
Average spatial batch extension              ...   0.05,  0.05,  0.04 au

Time for grid setup =    0.525 sec

------------------------------
INITIAL GUESS: MODEL POTENTIAL
------------------------------
Loading Hartree-Fock densities                     ... done
Calculating cut-offs                               ... done
Setting up the integral package                    ... done
Initializing the effective Hamiltonian             ... done
Starting the Coulomb interaction                   ... done (   0.0 sec)
Reading the grid                                   ... done
Mapping shells                                     ... done
Starting the XC term evaluation                    ... done (   0.1 sec)
  promolecular density results
     # of electrons  =     95.999720786
     EX              =   -117.174900881
     EC              =     -3.472170293
     EX+EC           =   -120.647071174
Transforming the Hamiltonian                       ... done (   0.0 sec)
Diagonalizing the Hamiltonian                      ... done (   0.0 sec)
Back transforming the eigenvectors                 ... done (   0.0 sec)
Now organizing SCF variables                       ... done
                      ------------------
                      INITIAL GUESS DONE (   0.8 sec)
                      ------------------
--------------
SCF ITERATIONS
--------------
ITER       Energy         Delta-E        Max-DP      RMS-DP      [F,P]     Damp
               ***  Starting incremental Fock matrix formation  ***
  0  -1718.5739975454   0.000000000000 0.11815614  0.00088730  0.1695514 0.7000
  1  -1718.6386665583  -0.064669012936 0.11078096  0.00073575  0.0857258 0.7000
                               ***Turning on DIIS***
  2  -1718.6702031538  -0.031536595526 0.26729606  0.00176028  0.0390255 0.0000
  3  -1718.7339605282  -0.063757374330 0.02418321  0.00038306  0.0285092 0.0000
  4  -1718.7376597586  -0.003699230414 0.02663802  0.00016480  0.0417824 0.0000
  5  -1718.7397995276  -0.002139769050 0.00678984  0.00007583  0.0176053 0.0000
  6  -1718.7403510081  -0.000551480440 0.01336371  0.00011148  0.0115599 0.0000
  7  -1718.7406820829  -0.000331074845 0.00772729  0.00009325  0.0049293 0.0000
  8  -1718.7407867215  -0.000104638629 0.00384373  0.00004422  0.0011460 0.0000
  9  -1718.7408068875  -0.000020165937 0.00479786  0.00005436  0.0007986 0.0000
 10  -1718.7408123119  -0.000005424382 0.00087497  0.00001069  0.0003268 0.0000
 11  -1718.7408123728  -0.000000060944 0.00302296  0.00003477  0.0003150 0.0000
 12  -1718.7408125039  -0.000000131135 0.00297298  0.00003359  0.0000575 0.0000
 13  -1718.7408125130  -0.000000009051 0.00215793  0.00002247  0.0000640 0.0000
                 **** Energy Check signals convergence ****

               *****************************************************
               *                     SUCCESS                       *
               *           SCF CONVERGED AFTER  14 CYCLES          *
               *****************************************************


Setting up the DFT-NL grid :

General Integration Accuracy     IntAcc      ...  4.340
Radial Grid Type                 RadialGrid  ... Gauss-Chebyshev
Angular Grid (max. acc.)         AngularGrid ... Lebedev-110
Angular grid pruning method      GridPruning ... 3 (G Style)
Weight generation scheme         WeightScheme... Becke
Basis function cutoff            BFCut       ...    1.0000e-10
Integration weight cutoff        WCut        ...    1.0000e-14
Grids for H and He will be reduced by one unit

# of grid points (after initial pruning)     ...  20566 (   0.0 sec)
# of grid points (after weights+screening)   ...  19496 (   0.0 sec)
nearest neighbour list constructed           ...    0.0 sec
Grid point re-assignment to atoms done       ...    0.0 sec
Grid point division into batches done        ...    0.0 sec
Reduced shell lists constructed in    0.0 sec

Total number of grid points                  ...    19496
Total number of batches                      ...      309
Average number of points per batch           ...       63
Average number of grid points per atom       ...     1625
Average number of shells per batch           ...   120.29 (74.71%)
Average number of basis functions per batch  ...   366.00 (78.04%)
Average number of large shells per batch     ...   104.36 (86.76%)
Average number of large basis fcns per batch ...   316.07 (86.36%)
Maximum spatial batch extension              ...   1.94,  1.93,  1.46 au
Average spatial batch extension              ...   0.07,  0.07,  0.06 au

Final grid set up in    0.1 sec

-------------------------------------------------------------------------------
                         DFT-NL dispersion correction                          
-------------------------------------------------------------------------------

SC Energy -1718.740812540 
NL    Energy 0.379415642 
SC+NL Energy -1718.361396899 
NL done in    0.1 sec
-------------------------------------------------------------------------------

----------------
TOTAL SCF ENERGY
----------------

Total Energy       :        -1718.36139690 Eh          -46758.99079 eV

Components:
Nuclear Repulsion  :          797.88729033 Eh           21711.61697 eV
Electronic Energy  :        -2516.24868723 Eh          -68470.60776 eV
One Electron Energy:        -3947.23268672 Eh         -107409.66201 eV
Two Electron Energy:         1430.98399950 Eh           38939.05425 eV

Virial components:
Potential Energy   :        -3433.32987556 Eh          -93425.65558 eV
Kinetic Energy     :         1714.96847866 Eh           46666.66479 eV
Virial Ratio       :            2.00197841


DFT components:
N(Alpha)           :       48.000076376400 electrons
N(Beta)            :       48.000076376400 electrons
N(Total)           :       96.000152752799 electrons
E(X)               :      -87.861508896828 Eh       
E(C)               :       -3.825649739230 Eh       
NL Energy, E(C,NL) :        0.379415641535 Eh       
E(XC)              :      -91.307742994523 Eh       
DFET-embed. en.    :        0.000000000000 Eh       

---------------
SCF CONVERGENCE
---------------

  Last Energy change         ...   -2.7291e-08  Tolerance :   1.0000e-06
  Last MAX-Density change    ...    1.1078e-03  Tolerance :   1.0000e-05
  Last RMS-Density change    ...    1.9765e-05  Tolerance :   1.0000e-06
  Last DIIS Error            ...    1.4193e-05  Tolerance :   1.0000e-06

             **** THE GBW FILE WAS UPDATED (MOR08_ed05.gbw) ****
             **** DENSITY FILE WAS UPDATED (MOR08_ed05.scfp) ****
             **** ENERGY FILE WAS UPDATED (MOR08_ed05.en.tmp) ****
             **** THE GBW FILE WAS UPDATED (MOR08_ed05.gbw) ****
             **** DENSITY FILE WAS UPDATED (MOR08_ed05.scfp) ****
----------------
ORBITAL ENERGIES
----------------

  NO   OCC          E(Eh)            E(eV) 
   0   2.0000    -235.992708     -6421.6881 
   1   2.0000     -27.593260      -750.8508 
   2   2.0000     -23.585416      -641.7918 
   3   2.0000     -23.585414      -641.7918 
   4   2.0000     -23.580776      -641.6655 
   5   2.0000     -19.438784      -528.9562 
   6   2.0000     -19.438783      -528.9562 
   7   2.0000     -19.438773      -528.9559 
   8   2.0000     -19.438770      -528.9558 
   9   2.0000     -19.431892      -528.7687 
  10   2.0000     -10.496700      -285.6297 
  11   2.0000     -10.496699      -285.6297 
  12   2.0000     -10.496692      -285.6295 
  13   2.0000     -10.496691      -285.6295 
  14   2.0000     -10.489421      -285.4317 
  15   2.0000      -3.332704       -90.6875 
  16   2.0000      -2.175482       -59.1979 
  17   2.0000      -2.175479       -59.1978 
  18   2.0000      -2.164418       -58.8968 
  19   2.0000      -1.290924       -35.1278 
  20   2.0000      -1.290114       -35.1058 
  21   2.0000      -1.290102       -35.1055 
  22   2.0000      -1.289461       -35.0880 
  23   2.0000      -1.282119       -34.8882 
  24   2.0000      -0.752534       -20.4775 
  25   2.0000      -0.705382       -19.1944 
  26   2.0000      -0.705373       -19.1942 
  27   2.0000      -0.699451       -19.0330 
  28   2.0000      -0.699338       -19.0300 
  29   2.0000      -0.635111       -17.2823 
  30   2.0000      -0.614996       -16.7349 
  31   2.0000      -0.602680       -16.3998 
  32   2.0000      -0.602678       -16.3997 
  33   2.0000      -0.601877       -16.3779 
  34   2.0000      -0.600504       -16.3405 
  35   2.0000      -0.600492       -16.3402 
  36   2.0000      -0.585911       -15.9434 
  37   2.0000      -0.579585       -15.7713 
  38   2.0000      -0.579582       -15.7712 
  39   2.0000      -0.577332       -15.7100 
  40   2.0000      -0.570813       -15.5326 
  41   2.0000      -0.561746       -15.2859 
  42   2.0000      -0.537705       -14.6317 
  43   2.0000      -0.537696       -14.6314 
  44   2.0000      -0.408554       -11.1173 
  45   2.0000      -0.381972       -10.3940 
  46   2.0000      -0.371511       -10.1093 
  47   2.0000      -0.371497       -10.1089 
  48   0.0000       0.018435         0.5016 
  49   0.0000       0.031692         0.8624 
  50   0.0000       0.031693         0.8624 
  51   0.0000       0.035747         0.9727 
  52   0.0000       0.037546         1.0217 
  53   0.0000       0.037554         1.0219 
  54   0.0000       0.049544         1.3482 
  55   0.0000       0.052076         1.4171 
  56   0.0000       0.052528         1.4294 
  57   0.0000       0.057535         1.5656 
  58   0.0000       0.059125         1.6089 
  59   0.0000       0.059881         1.6294 
  60   0.0000       0.059891         1.6297 
  61   0.0000       0.071035         1.9330 
  62   0.0000       0.071054         1.9335 
  63   0.0000       0.071904         1.9566 
  64   0.0000       0.080537         2.1915 
  65   0.0000       0.080542         2.1917 
  66   0.0000       0.093332         2.5397 
  67   0.0000       0.093347         2.5401 
  68   0.0000       0.096186         2.6174 
  69   0.0000       0.103654         2.8206 
  70   0.0000       0.113045         3.0761 
  71   0.0000       0.113069         3.0768 
  72   0.0000       0.114759         3.1228 
  73   0.0000       0.117564         3.1991 
  74   0.0000       0.117577         3.1994 
  75   0.0000       0.138241         3.7617 
  76   0.0000       0.157436         4.2841 
  77   0.0000       0.157744         4.2924 
  78   0.0000       0.157763         4.2930 
  79   0.0000       0.158999         4.3266 
  80   0.0000       0.161391         4.3917 
  81   0.0000       0.161403         4.3920 
  82   0.0000       0.169836         4.6215 
  83   0.0000       0.190988         5.1971 
  84   0.0000       0.203739         5.5440 
  85   0.0000       0.216841         5.9005 
  86   0.0000       0.241643         6.5754 
  87   0.0000       0.241679         6.5764 
  88   0.0000       0.252119         6.8605 
  89   0.0000       0.259292         7.0557 
  90   0.0000       0.270328         7.3560 
  91   0.0000       0.270339         7.3563 
  92   0.0000       0.274708         7.4752 
  93   0.0000       0.277768         7.5585 
  94   0.0000       0.283760         7.7215 
  95   0.0000       0.283774         7.7219 
  96   0.0000       0.298488         8.1223 
  97   0.0000       0.299311         8.1447 
  98   0.0000       0.314810         8.5664 
  99   0.0000       0.314858         8.5677 
 100   0.0000       0.316838         8.6216 
 101   0.0000       0.328887         8.9495 
 102   0.0000       0.350343         9.5333 
 103   0.0000       0.350480         9.5370 
 104   0.0000       0.368602        10.0302 
 105   0.0000       0.369847        10.0640 
 106   0.0000       0.371696        10.1144 
 107   0.0000       0.379797        10.3348 
 108   0.0000       0.379839        10.3359 
 109   0.0000       0.387209        10.5365 
 110   0.0000       0.389176        10.5900 
 111   0.0000       0.399140        10.8611 
 112   0.0000       0.399189        10.8625 
 113   0.0000       0.415486        11.3059 
 114   0.0000       0.415520        11.3069 
 115   0.0000       0.417453        11.3595 
 116   0.0000       0.438027        11.9193 
 117   0.0000       0.483790        13.1646 
 118   0.0000       0.486564        13.2401 
 119   0.0000       0.486593        13.2409 
 120   0.0000       0.502118        13.6633 
 121   0.0000       0.512823        13.9546 
 122   0.0000       0.519472        14.1356 
 123   0.0000       0.521802        14.1989 
 124   0.0000       0.521892        14.2014 
 125   0.0000       0.526968        14.3395 
 126   0.0000       0.545588        14.8462 
 127   0.0000       0.545610        14.8468 
 128   0.0000       0.549657        14.9569 
 129   0.0000       0.559710        15.2305 
 130   0.0000       0.559724        15.2309 
 131   0.0000       0.578697        15.7471 
 132   0.0000       0.585279        15.9263 
 133   0.0000       0.591120        16.0852 
 134   0.0000       0.591178        16.0868 
 135   0.0000       0.592922        16.1342 
 136   0.0000       0.597898        16.2696 
 137   0.0000       0.602520        16.3954 
 138   0.0000       0.603088        16.4109 
 139   0.0000       0.603740        16.4286 
 140   0.0000       0.603775        16.4295 
 141   0.0000       0.616401        16.7731 
 142   0.0000       0.618611        16.8333 
 143   0.0000       0.632811        17.2197 
 144   0.0000       0.632833        17.2203 
 145   0.0000       0.634190        17.2572 
 146   0.0000       0.634222        17.2581 
 147   0.0000       0.640590        17.4314 
 148   0.0000       0.645688        17.5701 
 149   0.0000       0.660105        17.9624 
 150   0.0000       0.661404        17.9977 
 151   0.0000       0.661406        17.9978 
 152   0.0000       0.673116        18.3164 
 153   0.0000       0.680017        18.5042 
 154   0.0000       0.714171        19.4336 
 155   0.0000       0.718687        19.5565 
 156   0.0000       0.718771        19.5587 
 157   0.0000       0.719015        19.5654 
 158   0.0000       0.727530        19.7971 
 159   0.0000       0.727603        19.7991 
 160   0.0000       0.733729        19.9658 
 161   0.0000       0.745333        20.2815 
 162   0.0000       0.748521        20.3683 
 163   0.0000       0.748544        20.3689 
 164   0.0000       0.769566        20.9410 
 165   0.0000       0.779075        21.1997 
 166   0.0000       0.779480        21.2107 
 167   0.0000       0.786711        21.4075 
 168   0.0000       0.786746        21.4084 
 169   0.0000       0.793253        21.5855 
 170   0.0000       0.808801        22.0086 
 171   0.0000       0.828874        22.5548 
 172   0.0000       0.828975        22.5576 
 173   0.0000       0.839065        22.8321 
 174   0.0000       0.866343        23.5744 
 175   0.0000       0.886392        24.1200 
 176   0.0000       0.887583        24.1524 
 177   0.0000       0.902659        24.5626 
 178   0.0000       0.904691        24.6179 
 179   0.0000       0.904700        24.6181 
 180   0.0000       0.919863        25.0307 
 181   0.0000       0.924938        25.1688 
 182   0.0000       0.925016        25.1710 
 183   0.0000       0.946720        25.7616 
 184   0.0000       0.955147        25.9909 
 185   0.0000       0.955211        25.9926 
 186   0.0000       0.960495        26.1364 
 187   0.0000       0.980022        26.6678 
 188   0.0000       0.997358        27.1395 
 189   0.0000       1.003874        27.3168 
 190   0.0000       1.003916        27.3180 
 191   0.0000       1.042725        28.3740 
 192   0.0000       1.059533        28.8314 
 193   0.0000       1.059559        28.8321 
 194   0.0000       1.062037        28.8995 
 195   0.0000       1.066989        29.0343 
 196   0.0000       1.067005        29.0347 
 197   0.0000       1.071940        29.1690 
 198   0.0000       1.075460        29.2648 
 199   0.0000       1.082731        29.4626 
 200   0.0000       1.110048        30.2059 
 201   0.0000       1.111911        30.2566 
 202   0.0000       1.114131        30.3170 
 203   0.0000       1.114141        30.3173 
 204   0.0000       1.154916        31.4269 
 205   0.0000       1.155022        31.4297 
 206   0.0000       1.182686        32.1825 
 207   0.0000       1.186901        32.2972 
 208   0.0000       1.187042        32.3011 
 209   0.0000       1.274798        34.6890 
 210   0.0000       1.303465        35.4691 
 211   0.0000       1.319039        35.8929 
 212   0.0000       1.335694        36.3461 
 213   0.0000       1.346400        36.6374 
 214   0.0000       1.346411        36.6377 
 215   0.0000       1.348322        36.6897 
 216   0.0000       1.348350        36.6905 
 217   0.0000       1.358091        36.9555 
 218   0.0000       1.358467        36.9658 
 219   0.0000       1.412426        38.4341 
 220   0.0000       1.478473        40.2313 
 221   0.0000       1.478507        40.2322 
 222   0.0000       1.504892        40.9502 
 223   0.0000       1.550017        42.1781 
 224   0.0000       1.571047        42.7504 
 225   0.0000       1.571077        42.7512 
 226   0.0000       1.635681        44.5091 
 227   0.0000       1.716417        46.7061 
 228   0.0000       1.720241        46.8101 
 229   0.0000       1.748449        47.5777 
 230   0.0000       1.748487        47.5788 
 231   0.0000       1.751066        47.6489 
 232   0.0000       1.764640        48.0183 
 233   0.0000       1.786779        48.6207 
 234   0.0000       1.809645        49.2429 
 235   0.0000       1.809668        49.2436 
 236   0.0000       1.816915        49.4408 
 237   0.0000       1.816988        49.4428 
 238   0.0000       1.839614        50.0584 
 239   0.0000       1.840063        50.0707 
 240   0.0000       1.840068        50.0708 
 241   0.0000       1.852321        50.4042 
 242   0.0000       1.852330        50.4045 
 243   0.0000       1.870557        50.9005 
 244   0.0000       1.897156        51.6242 
 245   0.0000       1.897174        51.6247 
 246   0.0000       1.902758        51.7767 
 247   0.0000       1.907420        51.9035 
 248   0.0000       1.908802        51.9411 
 249   0.0000       1.949553        53.0500 
 250   0.0000       1.964489        53.4565 
 251   0.0000       1.974000        53.7153 
 252   0.0000       1.974043        53.7164 
 253   0.0000       1.990093        54.1532 
 254   0.0000       1.993483        54.2454 
 255   0.0000       1.993509        54.2461 
 256   0.0000       2.038643        55.4743 
 257   0.0000       2.078095        56.5478 
 258   0.0000       2.110089        57.4184 
 259   0.0000       2.125078        57.8263 
 260   0.0000       2.139013        58.2055 
 261   0.0000       2.139077        58.2072 
 262   0.0000       2.169791        59.0430 
 263   0.0000       2.169865        59.0450 
 264   0.0000       2.225383        60.5557 
 265   0.0000       2.300925        62.6113 
 266   0.0000       2.310572        62.8739 
 267   0.0000       2.310615        62.8750 
 268   0.0000       2.359963        64.2179 
 269   0.0000       2.410005        65.5796 
 270   0.0000       2.410136        65.5831 
 271   0.0000       2.414443        65.7003 
 272   0.0000       2.416934        65.7681 
 273   0.0000       2.460999        66.9672 
 274   0.0000       2.461088        66.9696 
 275   0.0000       2.464835        67.0716 
 276   0.0000       2.522727        68.6469 
 277   0.0000       2.535271        68.9882 
 278   0.0000       2.557877        69.6034 
 279   0.0000       2.557897        69.6039 
 280   0.0000       2.652795        72.1862 
 281   0.0000       2.674354        72.7729 
 282   0.0000       2.728457        74.2451 
 283   0.0000       2.728479        74.2457 
 284   0.0000       2.735478        74.4361 
 285   0.0000       2.744858        74.6914 
 286   0.0000       2.744910        74.6928 
 287   0.0000       2.754387        74.9507 
 288   0.0000       2.756383        75.0050 
 289   0.0000       2.756391        75.0052 
 290   0.0000       2.768821        75.3435 
 291   0.0000       2.807393        76.3930 
 292   0.0000       2.875136        78.2364 
 293   0.0000       2.875166        78.2372 
 294   0.0000       2.882417        78.4345 
 295   0.0000       2.884425        78.4892 
 296   0.0000       2.902446        78.9796 
 297   0.0000       2.902509        78.9813 
 298   0.0000       2.911609        79.2289 
 299   0.0000       2.916529        79.3628 
 300   0.0000       2.917786        79.3970 
 301   0.0000       2.917815        79.3978 
 302   0.0000       2.999167        81.6115 
 303   0.0000       3.014063        82.0168 
 304   0.0000       3.058794        83.2340 
 305   0.0000       3.089031        84.0568 
 306   0.0000       3.089085        84.0583 
 307   0.0000       3.091439        84.1223 
 308   0.0000       3.095990        84.2462 
 309   0.0000       3.115679        84.7819 
 310   0.0000       3.116333        84.7997 
 311   0.0000       3.116345        84.8001 
 312   0.0000       3.135444        85.3198 
 313   0.0000       3.135573        85.3233 
 314   0.0000       3.159105        85.9636 
 315   0.0000       3.161349        86.0247 
 316   0.0000       3.161357        86.0249 
 317   0.0000       3.169091        86.2353 
 318   0.0000       3.200941        87.1020 
 319   0.0000       3.202352        87.1404 
 320   0.0000       3.238369        88.1205 
 321   0.0000       3.238490        88.1238 
 322   0.0000       3.254866        88.5694 
 323   0.0000       3.264116        88.8211 
 324   0.0000       3.268300        88.9350 
 325   0.0000       3.275768        89.1382 
 326   0.0000       3.275893        89.1416 
 327   0.0000       3.318200        90.2928 
 328   0.0000       3.345928        91.0473 
 329   0.0000       3.345999        91.0493 
 330   0.0000       3.357449        91.3608 
 331   0.0000       3.359587        91.4190 
 332   0.0000       3.370892        91.7266 
 333   0.0000       3.396140        92.4137 
 334   0.0000       3.424098        93.1745 
 335   0.0000       3.452453        93.9460 
 336   0.0000       3.452522        93.9479 
 337   0.0000       3.466588        94.3307 
 338   0.0000       3.492066        95.0240 
 339   0.0000       3.507434        95.4421 
 340   0.0000       3.507445        95.4424 
 341   0.0000       3.525108        95.9231 
 342   0.0000       3.537864        96.2702 
 343   0.0000       3.537898        96.2711 
 344   0.0000       3.590458        97.7013 
 345   0.0000       3.625287        98.6491 
 346   0.0000       3.630515        98.7913 
 347   0.0000       3.716666       101.1356 
 348   0.0000       3.716707       101.1367 
 349   0.0000       3.718058       101.1735 
 350   0.0000       3.729800       101.4930 
 351   0.0000       3.730124       101.5018 
 352   0.0000       3.733760       101.6008 
 353   0.0000       3.836243       104.3895 
 354   0.0000       3.904944       106.2589 
 355   0.0000       3.905033       106.2613 
 356   0.0000       3.921454       106.7082 
 357   0.0000       3.972946       108.1094 
 358   0.0000       3.976765       108.2133 
 359   0.0000       3.976827       108.2150 
 360   0.0000       3.985698       108.4564 
 361   0.0000       3.992866       108.6514 
 362   0.0000       4.041402       109.9721 
 363   0.0000       4.051028       110.2341 
 364   0.0000       4.051116       110.2365 
 365   0.0000       4.068093       110.6984 
 366   0.0000       4.165815       113.3576 
 367   0.0000       4.165879       113.3593 
 368   0.0000       4.235160       115.2446 
 369   0.0000       4.329389       117.8087 
 370   0.0000       4.394498       119.5804 
 371   0.0000       4.394990       119.5938 
 372   0.0000       4.493330       122.2697 
 373   0.0000       4.525476       123.1445 
 374   0.0000       4.525601       123.1479 
 375   0.0000       4.555320       123.9566 
 376   0.0000       4.610317       125.4531 
 377   0.0000       4.758627       129.4888 
 378   0.0000       4.952993       134.7778 
 379   0.0000       4.952999       134.7779 
 380   0.0000       5.015903       136.4897 
 381   0.0000       5.074866       138.0941 
 382   0.0000       5.152031       140.1939 
 383   0.0000       5.187011       141.1457 
 384   0.0000       5.187235       141.1518 
 385   0.0000       5.187374       141.1556 
 386   0.0000       5.187388       141.1560 
 387   0.0000       5.187708       141.1647 
 388   0.0000       5.189891       141.2241 
 389   0.0000       5.189897       141.2243 
 390   0.0000       5.192950       141.3074 
 391   0.0000       5.192960       141.3076 
 392   0.0000       5.212886       141.8498 
 393   0.0000       5.577765       151.7787 
 394   0.0000       5.580559       151.8547 
 395   0.0000       5.594801       152.2423 
 396   0.0000       5.594823       152.2429 
 397   0.0000       5.595248       152.2544 
 398   0.0000       5.605839       152.5426 
 399   0.0000       5.614412       152.7759 
 400   0.0000       5.614425       152.7763 
 401   0.0000       5.699892       155.1019 
 402   0.0000       5.721036       155.6773 
 403   0.0000       6.241345       169.8356 
 404   0.0000       6.280749       170.9079 
 405   0.0000       6.280758       170.9081 
 406   0.0000       6.381029       173.6366 
 407   0.0000       6.419858       174.6932 
 408   0.0000       6.431258       175.0034 
 409   0.0000       6.431359       175.0062 
 410   0.0000       6.436658       175.1504 
 411   0.0000       6.436678       175.1509 
 412   0.0000       6.505253       177.0169 
 413   0.0000       6.505871       177.0338 
 414   0.0000       6.506782       177.0585 
 415   0.0000       6.506819       177.0595 
 416   0.0000       6.515549       177.2971 
 417   0.0000       6.524505       177.5408 
 418   0.0000       6.535581       177.8422 
 419   0.0000       6.535594       177.8425 
 420   0.0000       6.543882       178.0681 
 421   0.0000       6.545130       178.1020 
 422   0.0000       6.563456       178.6007 
 423   0.0000       6.728222       183.0842 
 424   0.0000       6.731013       183.1602 
 425   0.0000       6.731017       183.1603 
 426   0.0000       6.746614       183.5847 
 427   0.0000       6.751525       183.7183 
 428   0.0000       6.923793       188.4060 
 429   0.0000       6.946854       189.0335 
 430   0.0000       6.946901       189.0348 
 431   0.0000       6.959638       189.3814 
 432   0.0000       6.970834       189.6860 
 433   0.0000       6.970865       189.6869 
 434   0.0000       6.972533       189.7323 
 435   0.0000       6.978554       189.8961 
 436   0.0000       6.985855       190.0948 
 437   0.0000       6.985886       190.0956 
 438   0.0000       7.277689       198.0360 
 439   0.0000       7.288857       198.3399 
 440   0.0000       7.288881       198.3405 
 441   0.0000       7.309078       198.8901 
 442   0.0000       7.310224       198.9213 
 443   0.0000       7.338233       199.6835 
 444   0.0000       7.359568       200.2640 
 445   0.0000       7.359621       200.2655 
 446   0.0000       7.559248       205.6976 
 447   0.0000       7.559352       205.7004 
 448   0.0000       7.559912       205.7157 
 449   0.0000       7.707757       209.7387 
 450   0.0000       7.833794       213.1684 
 451   0.0000       8.025383       218.3818 
 452   0.0000       8.189683       222.8526 
 453   0.0000       8.469714       230.4726 
 454   0.0000       8.469767       230.4741 
 455   0.0000       8.636068       234.9994 
 456   0.0000       8.965383       243.9605 
 457   0.0000       8.965484       243.9632 
 458   0.0000       9.025048       245.5841 
 459   0.0000      23.646456       643.4528 
 460   0.0000      23.646608       643.4569 
 461   0.0000      23.898586       650.3136 
 462   0.0000      23.936007       651.3319 
 463   0.0000      24.024991       653.7532 
 464   0.0000      44.525064      1211.5886 
 465   0.0000      44.650476      1215.0012 
 466   0.0000      44.650555      1215.0034 
 467   0.0000      44.689872      1216.0732 
 468   0.0000      44.735468      1217.3140 

                    ********************************
                    * MULLIKEN POPULATION ANALYSIS *
                    ********************************

-----------------------
MULLIKEN ATOMIC CHARGES
-----------------------
   0 Mn:    0.157200
   1 O :   -0.332294
   2 C :    0.353777
   3 C :    0.072639
   4 O :   -0.360426
   5 C :    0.353166
   6 O :   -0.332291
   7 C :    0.352851
   8 O :   -0.332355
   9 C :    0.352115
  10 O :   -0.332248
  11 H :    0.047867
Sum of atomic charges:   -0.0000000

--------------------------------
MULLIKEN REDUCED ORBITAL CHARGES
--------------------------------
  0 Mns       :     6.681414  s :     6.681414
      pz      :     4.192948  p :    12.083453
      px      :     3.945198
      py      :     3.945307
      dz2     :     0.991555  d :     6.066964
      dxz     :     1.553351
      dyz     :     1.553374
      dx2y2   :     0.566968
      dxy     :     1.401717
      f0      :     0.002424  f :     0.010822
      f+1     :     0.001495
      f-1     :     0.001494
      f+2     :     0.000694
      f-2     :     0.000077
      f+3     :     0.002319
      f-3     :     0.002319
      g0      :     0.000030  g :     0.000147
      g+1     :     0.000010
      g-1     :     0.000010
      g+2     :     0.000033
      g-2     :     0.000007
      g+3     :     0.000006
      g-3     :     0.000006
      g+4     :     0.000038
      g-4     :     0.000008
  1 O s       :     4.006586  s :     4.006586
      pz      :     1.482606  p :     4.281988
      px      :     1.331411
      py      :     1.467971
      dz2     :     0.004136  d :     0.041869
      dxz     :     0.013490
      dyz     :     0.000304
      dx2y2   :     0.010366
      dxy     :     0.013572
      f0      :     0.000217  f :     0.001851
      f+1     :     0.000267
      f-1     :     0.000035
      f+2     :     0.000389
      f-2     :     0.000049
      f+3     :     0.000283
      f-3     :     0.000612
  2 C s       :     3.463352  s :     3.463352
      pz      :     0.610069  p :     2.023693
      px      :     0.791701
      py      :     0.621923
      dz2     :     0.005190  d :     0.141120
      dxz     :     0.061218
      dyz     :     0.004680
      dx2y2   :    -0.000291
      dxy     :     0.070323
      f0      :     0.002009  f :     0.018057
      f+1     :     0.002947
      f-1     :     0.000351
      f+2     :     0.003497
      f-2     :     0.000516
      f+3     :     0.003495
      f-3     :     0.005242
  3 C s       :     3.697652  s :     3.697652
      pz      :     0.825922  p :     2.068028
      px      :     0.621065
      py      :     0.621040
      dz2     :    -0.010487  d :     0.143971
      dxz     :     0.073433
      dyz     :     0.073433
      dx2y2   :     0.002714
      dxy     :     0.004877
      f0      :     0.005719  f :     0.017710
      f+1     :     0.005886
      f-1     :     0.005886
      f+2     :     0.000091
      f-2     :     0.000117
      f+3     :     0.000005
      f-3     :     0.000005
  4 O s       :     4.024792  s :     4.024792
      pz      :     1.326885  p :     4.294432
      px      :     1.483766
      py      :     1.483781
      dz2     :     0.012883  d :     0.039379
      dxz     :     0.013417
      dyz     :     0.013417
      dx2y2   :    -0.000169
      dxy     :    -0.000169
      f0      :     0.000462  f :     0.001822
      f+1     :     0.000680
      f-1     :     0.000680
      f+2     :     0.000000
      f-2     :     0.000000
      f+3     :    -0.000000
      f-3     :    -0.000000
  5 C s       :     3.463790  s :     3.463790
      pz      :     0.610089  p :     2.023892
      px      :     0.791891
      py      :     0.621912
      dz2     :     0.005190  d :     0.141095
      dxz     :     0.061204
      dyz     :     0.004681
      dx2y2   :    -0.000300
      dxy     :     0.070320
      f0      :     0.002009  f :     0.018057
      f+1     :     0.002947
      f-1     :     0.000351
      f+2     :     0.003497
      f-2     :     0.000516
      f+3     :     0.003495
      f-3     :     0.005242
  6 O s       :     4.006598  s :     4.006598
      pz      :     1.482601  p :     4.281977
      px      :     1.331404
      py      :     1.467971
      dz2     :     0.004136  d :     0.041865
      dxz     :     0.013489
      dyz     :     0.000305
      dx2y2   :     0.010364
      dxy     :     0.013572
      f0      :     0.000217  f :     0.001851
      f+1     :     0.000267
      f-1     :     0.000035
      f+2     :     0.000389
      f-2     :     0.000049
      f+3     :     0.000283
      f-3     :     0.000612
  7 C s       :     3.463934  s :     3.463934
      pz      :     0.610159  p :     2.024022
      px      :     0.621922
      py      :     0.791941
      dz2     :     0.005217  d :     0.141136
      dxz     :     0.004689
      dyz     :     0.061199
      dx2y2   :    -0.000284
      dxy     :     0.070314
      f0      :     0.002008  f :     0.018058
      f+1     :     0.000351
      f-1     :     0.002950
      f+2     :     0.003496
      f-2     :     0.000518
      f+3     :     0.005240
      f-3     :     0.003495
  8 O s       :     4.006649  s :     4.006649
      pz      :     1.482604  p :     4.281993
      px      :     1.467965
      py      :     1.331424
      dz2     :     0.004139  d :     0.041861
      dxz     :     0.000307
      dyz     :     0.013486
      dx2y2   :     0.010359
      dxy     :     0.013570
      f0      :     0.000217  f :     0.001851
      f+1     :     0.000035
      f-1     :     0.000267
      f+2     :     0.000389
      f-2     :     0.000049
      f+3     :     0.000612
      f-3     :     0.000283
  9 C s       :     3.464506  s :     3.464506
      pz      :     0.610193  p :     2.024160
      px      :     0.621919
      py      :     0.792047
      dz2     :     0.005238  d :     0.141161
      dxz     :     0.004691
      dyz     :     0.061191
      dx2y2   :    -0.000270
      dxy     :     0.070311
      f0      :     0.002007  f :     0.018058
      f+1     :     0.000351
      f-1     :     0.002951
      f+2     :     0.003496
      f-2     :     0.000518
      f+3     :     0.005240
      f-3     :     0.003495
 10 O s       :     4.006550  s :     4.006550
      pz      :     1.482592  p :     4.281989
      px      :     1.467964
      py      :     1.331433
      dz2     :     0.004139  d :     0.041859
      dxz     :     0.000307
      dyz     :     0.013485
      dx2y2   :     0.010357
      dxy     :     0.013570
      f0      :     0.000217  f :     0.001851
      f+1     :     0.000035
      f-1     :     0.000267
      f+2     :     0.000389
      f-2     :     0.000049
      f+3     :     0.000612
      f-3     :     0.000283
 11 H s       :     0.934226  s :     0.934226
      pz      :    -0.007482  p :     0.016732
      px      :     0.012106
      py      :     0.012107
      dz2     :     0.000602  d :     0.001176
      dxz     :     0.000240
      dyz     :     0.000240
      dx2y2   :     0.000055
      dxy     :     0.000039


                     *******************************
                     * LOEWDIN POPULATION ANALYSIS *
                     *******************************

----------------------
LOEWDIN ATOMIC CHARGES
----------------------
   0 Mn:   -0.519265
   1 O :    0.170568
   2 C :   -0.087396
   3 C :   -0.061350
   4 O :    0.154352
   5 C :   -0.087392
   6 O :    0.170570
   7 C :   -0.087425
   8 O :    0.170548
   9 C :   -0.087411
  10 O :    0.170552
  11 H :    0.093651

-------------------------------
LOEWDIN REDUCED ORBITAL CHARGES
-------------------------------
  0 Mns       :     5.993102  s :     5.993102
      pz      :     4.361306  p :    13.028825
      px      :     4.333754
      py      :     4.333765
      dz2     :     1.091340  d :     6.451751
      dxz     :     1.478496
      dyz     :     1.478505
      dx2y2   :     0.985344
      dxy     :     1.418066
      f0      :     0.010336  f :     0.045075
      f+1     :     0.005965
      f-1     :     0.005962
      f+2     :     0.002436
      f-2     :     0.000092
      f+3     :     0.010142
      f-3     :     0.010141
      g0      :     0.000138  g :     0.000513
      g+1     :     0.000028
      g-1     :     0.000028
      g+2     :     0.000107
      g-2     :     0.000004
      g+3     :     0.000013
      g-3     :     0.000013
      g+4     :     0.000168
      g-4     :     0.000012
  1 O s       :     3.383953  s :     3.383953
      pz      :     1.353077  p :     4.262104
      px      :     1.583450
      py      :     1.325577
      dz2     :     0.024976  d :     0.177241
      dxz     :     0.042199
      dyz     :     0.001016
      dx2y2   :     0.076219
      dxy     :     0.032830
      f0      :     0.000570  f :     0.006134
      f+1     :     0.001199
      f-1     :     0.000064
      f+2     :     0.001032
      f-2     :     0.000094
      f+3     :     0.002007
      f-3     :     0.001169
  2 C s       :     2.898631  s :     2.898631
      pz      :     0.613070  p :     2.245307
      px      :     1.046033
      py      :     0.586204
      dz2     :     0.093229  d :     0.854584
      dxz     :     0.277287
      dyz     :     0.017610
      dx2y2   :     0.202779
      dxy     :     0.263680
      f0      :     0.009464  f :     0.088874
      f+1     :     0.014775
      f-1     :     0.001411
      f+2     :     0.017263
      f-2     :     0.002463
      f+3     :     0.018532
      f-3     :     0.024967
  3 C s       :     2.904272  s :     2.904272
      pz      :     1.051764  p :     2.239791
      px      :     0.594006
      py      :     0.594021
      dz2     :     0.264485  d :     0.829841
      dxz     :     0.267468
      dyz     :     0.267463
      dx2y2   :     0.019992
      dxy     :     0.010434
      f0      :     0.030629  f :     0.087446
      f+1     :     0.028041
      f-1     :     0.028042
      f+2     :     0.000183
      f-2     :     0.000512
      f+3     :     0.000019
      f-3     :     0.000019
  4 O s       :     3.389437  s :     3.389437
      pz      :     1.590079  p :     4.270984
      px      :     1.340445
      py      :     1.340460
      dz2     :     0.106687  d :     0.179179
      dxz     :     0.036209
      dyz     :     0.036213
      dx2y2   :     0.000049
      dxy     :     0.000022
      f0      :     0.003392  f :     0.006047
      f+1     :     0.001327
      f-1     :     0.001327
      f+2     :     0.000000
      f-2     :     0.000001
      f+3     :     0.000000
      f-3     :     0.000000
  5 C s       :     2.898631  s :     2.898631
      pz      :     0.613079  p :     2.245306
      px      :     1.046026
      py      :     0.586201
      dz2     :     0.093238  d :     0.854581
      dxz     :     0.277277
      dyz     :     0.017614
      dx2y2   :     0.202776
      dxy     :     0.263675
      f0      :     0.009463  f :     0.088874
      f+1     :     0.014776
      f-1     :     0.001411
      f+2     :     0.017263
      f-2     :     0.002464
      f+3     :     0.018531
      f-3     :     0.024966
  6 O s       :     3.383953  s :     3.383953
      pz      :     1.353080  p :     4.262102
      px      :     1.583447
      py      :     1.325576
      dz2     :     0.024975  d :     0.177241
      dxz     :     0.042203
      dyz     :     0.001017
      dx2y2   :     0.076217
      dxy     :     0.032829
      f0      :     0.000570  f :     0.006134
      f+1     :     0.001199
      f-1     :     0.000064
      f+2     :     0.001033
      f-2     :     0.000094
      f+3     :     0.002007
      f-3     :     0.001168
  7 C s       :     2.898626  s :     2.898626
      pz      :     0.613160  p :     2.245322
      px      :     0.586203
      py      :     1.045959
      dz2     :     0.093254  d :     0.854601
      dxz     :     0.017630
      dyz     :     0.277291
      dx2y2   :     0.202773
      dxy     :     0.263653
      f0      :     0.009457  f :     0.088876
      f+1     :     0.001409
      f-1     :     0.014789
      f+2     :     0.017261
      f-2     :     0.002472
      f+3     :     0.024959
      f-3     :     0.018529
  8 O s       :     3.383953  s :     3.383953
      pz      :     1.353134  p :     4.262119
      px      :     1.325570
      py      :     1.583415
      dz2     :     0.024968  d :     0.177246
      dxz     :     0.001021
      dyz     :     0.042232
      dx2y2   :     0.076200
      dxy     :     0.032825
      f0      :     0.000570  f :     0.006134
      f+1     :     0.000064
      f-1     :     0.001199
      f+2     :     0.001033
      f-2     :     0.000094
      f+3     :     0.001168
      f-3     :     0.002006
  9 C s       :     2.898630  s :     2.898630
      pz      :     0.613180  p :     2.245318
      px      :     0.586202
      py      :     1.045936
      dz2     :     0.093273  d :     0.854588
      dxz     :     0.017641
      dyz     :     0.277268
      dx2y2   :     0.202766
      dxy     :     0.263639
      f0      :     0.009455  f :     0.088876
      f+1     :     0.001409
      f-1     :     0.014793
      f+2     :     0.017260
      f-2     :     0.002475
      f+3     :     0.024956
      f-3     :     0.018527
 10 O s       :     3.383953  s :     3.383953
      pz      :     1.353141  p :     4.262115
      px      :     1.325570
      py      :     1.583405
      dz2     :     0.024966  d :     0.177245
      dxz     :     0.001023
      dyz     :     0.042239
      dx2y2   :     0.076194
      dxy     :     0.032823
      f0      :     0.000570  f :     0.006134
      f+1     :     0.000063
      f-1     :     0.001198
      f+2     :     0.001034
      f-2     :     0.000094
      f+3     :     0.001168
      f-3     :     0.002006
 11 H s       :     0.679719  s :     0.679719
      pz      :     0.081865  p :     0.213477
      px      :     0.065790
      py      :     0.065823
      dz2     :     0.005201  d :     0.013153
      dxz     :     0.003691
      dyz     :     0.003691
      dx2y2   :     0.000303
      dxy     :     0.000268


                      *****************************
                      * MAYER POPULATION ANALYSIS *
                      *****************************

  NA   - Mulliken gross atomic population
  ZA   - Total nuclear charge
  QA   - Mulliken gross atomic charge
  VA   - Mayer's total valence
  BVA  - Mayer's bonded valence
  FA   - Mayer's free valence

  ATOM       NA         ZA         QA         VA         BVA        FA
  0 Mn    24.8428    25.0000     0.1572     4.8261     4.8261     0.0000
  1 O      8.3323     8.0000    -0.3323     2.1152     2.1152     0.0000
  2 C      5.6462     6.0000     0.3538     3.0981     3.0981    -0.0000
  3 C      5.9274     6.0000     0.0726     3.0524     3.0524     0.0000
  4 O      8.3604     8.0000    -0.3604     2.0467     2.0467     0.0000
  5 C      5.6468     6.0000     0.3532     3.0968     3.0968    -0.0000
  6 O      8.3323     8.0000    -0.3323     2.1152     2.1152     0.0000
  7 C      5.6471     6.0000     0.3529     3.0977     3.0977    -0.0000
  8 O      8.3324     8.0000    -0.3324     2.1152     2.1152    -0.0000
  9 C      5.6479     6.0000     0.3521     3.0973     3.0973    -0.0000
 10 O      8.3322     8.0000    -0.3322     2.1153     2.1153     0.0000
 11 H      0.9521     1.0000     0.0479     1.0353     1.0353     0.0000

  Mayer bond orders larger than 0.100000
B(  0-Mn,  2-C ) :   0.7716 B(  0-Mn,  3-C ) :   0.8302 B(  0-Mn,  5-C ) :   0.7707 
B(  0-Mn,  7-C ) :   0.7715 B(  0-Mn,  9-C ) :   0.7711 B(  0-Mn, 11-H ) :   0.8437 
B(  1-O ,  2-C ) :   2.0771 B(  3-C ,  4-O ) :   2.0195 B(  5-C ,  6-O ) :   2.0769 
B(  7-C ,  8-O ) :   2.0770 B(  9-C , 10-O ) :   2.0771 

-------
TIMINGS
-------

Total SCF time: 0 days 0 hours 2 min 9 sec 

Total time                  ....     129.199 sec
Sum of individual times     ....     128.623 sec  ( 99.6%)

Fock matrix formation       ....     126.645 sec  ( 98.0%)
  XC integration            ....       3.433 sec  (  2.7% of F)
    Basis function eval.    ....       0.362 sec  ( 10.5% of XC)
    Density eval.           ....       0.932 sec  ( 27.1% of XC)
    XC-Functional eval.     ....       0.078 sec  (  2.3% of XC)
    XC-Potential eval.      ....       1.533 sec  ( 44.6% of XC)
Diagonalization             ....       0.671 sec  (  0.5%)
Density matrix formation    ....       0.035 sec  (  0.0%)
Population analysis         ....       0.036 sec  (  0.0%)
Initial guess               ....       0.265 sec  (  0.2%)
Orbital Transformation      ....       0.000 sec  (  0.0%)
Orbital Orthonormalization  ....       0.000 sec  (  0.0%)
DIIS solution               ....       0.395 sec  (  0.3%)
Grid generation             ....       0.576 sec  (  0.4%)

-------------------------   --------------------
FINAL SINGLE POINT ENERGY     -1718.361396898748
-------------------------   --------------------


                            ***************************************
                            *     ORCA property calculations      *
                            ***************************************

                                    ---------------------
                                    Active property flags
                                    ---------------------
   (+) Dipole Moment


------------------------------------------------------------------------------
                       ORCA ELECTRIC PROPERTIES CALCULATION
------------------------------------------------------------------------------

Dipole Moment Calculation                       ... on
Quadrupole Moment Calculation                   ... off
Polarizability Calculation                      ... off
GBWName                                         ... MOR08_ed05.gbw
Electron density file                           ... MOR08_ed05.scfp
The origin for moment calculation is the CENTER OF MASS  = ( 0.000001, -0.000002  0.009160)

-------------
DIPOLE MOMENT
-------------
                                X             Y             Z
Electronic contribution:      0.00008      -0.00018       1.01517
Nuclear contribution   :     -0.00006       0.00014      -0.87929
                        -----------------------------------------
Total Dipole Moment    :      0.00002      -0.00004       0.13588
                        -----------------------------------------
Magnitude (a.u.)       :      0.13588
Magnitude (Debye)      :      0.34538



--------------------
Rotational spectrum 
--------------------
 
Rotational constants in cm-1:     0.030200     0.030198     0.023242 
Rotational constants in MHz :   905.379927   905.310991   696.775514 

 Dipole components along the rotational axes: 
x,y,z [a.u.] :     0.000017    -0.000040     0.135879 
x,y,z [Debye]:     0.000044    -0.000102     0.345378 

 

Timings for individual modules:

Sum of individual times         ...      130.724 sec (=   2.179 min)
GTO integral calculation        ...        1.070 sec (=   0.018 min)   0.8 %
SCF iterations                  ...      129.653 sec (=   2.161 min)  99.2 %
                             ****ORCA TERMINATED NORMALLY****
TOTAL RUN TIME: 0 days 0 hours 2 minutes 11 seconds 358 msec
