
                                 *****************
                                 * O   R   C   A *
                                 *****************

           --- An Ab Initio, DFT and Semiempirical electronic structure package ---

                  #######################################################
                  #                        -***-                        #
                  #          Department of theory and spectroscopy      #
                  #               Directorship: Frank Neese             #
                  #        Max Planck Institute fuer Kohlenforschung    #
                  #                Kaiser Wilhelm Platz 1               #
                  #                 D-45470 Muelheim/Ruhr               #
                  #                      Germany                        #
                  #                                                     #
                  #                  All rights reserved                #
                  #                        -***-                        #
                  #######################################################


                         Program Version 4.2.0 -  RELEASE  -


 With contributions from (in alphabetic order):
   Daniel Aravena         : Magnetic Suceptibility
   Michael Atanasov       : Ab Initio Ligand Field Theory (pilot matlab implementation)
   Alexander A. Auer      : GIAO ZORA, VPT2
   Ute Becker             : Parallelization
   Giovanni Bistoni       : ED, misc. LED, open-shell LED, HFLED
   Martin Brehm           : Molecular dynamics
   Dmytro Bykov           : SCF Hessian
   Vijay G. Chilkuri      : MRCI spin determinant printing, contributions to CSF-ICE
   Dipayan Datta          : RHF DLPNO-CCSD density
   Achintya Kumar Dutta   : EOM-CC, STEOM-CC
   Dmitry Ganyushin       : Spin-Orbit,Spin-Spin,Magnetic field MRCI
   Miquel Garcia          : C-PCM Hessian, Gaussian charge scheme
   Yang Guo               : DLPNO-NEVPT2, CIM, IAO-localization
   Andreas Hansen         : Spin unrestricted coupled pair/coupled cluster methods
   Benjamin Helmich-Paris : CASSCF linear response (MC-RPA)
   Lee Huntington         : MR-EOM, pCC
   Robert Izsak           : Overlap fitted RIJCOSX, COSX-SCS-MP3, EOM
   Christian Kollmar      : KDIIS, OOCD, Brueckner-CCSD(T), CCSD density
   Simone Kossmann        : Meta GGA functionals, TD-DFT gradient, OOMP2, MP2 Hessian
   Martin Krupicka        : AUTO-CI
   Lucas Lang             : DCDCAS
   Dagmar Lenk            : GEPOL surface, SMD
   Dimitrios Liakos       : Extrapolation schemes; Compound Job, initial MDCI parallelization
   Dimitrios Manganas     : Further ROCIS development; embedding schemes
   Dimitrios Pantazis     : SARC Basis sets
   Taras Petrenko         : DFT Hessian,TD-DFT gradient, ASA, ECA, R-Raman, ABS, FL, XAS/XES, NRVS
   Peter Pinski           : DLPNO-MP2, DLPNO-MP2 Gradient
   Christoph Reimann      : Effective Core Potentials
   Marius Retegan         : Local ZFS, SOC
   Christoph Riplinger    : Optimizer, TS searches, QM/MM, DLPNO-CCSD(T), (RO)-DLPNO pert. Triples
   Tobias Risthaus        : Range-separated hybrids, TD-DFT gradient, RPA, STAB
   Michael Roemelt        : Original ROCIS implementation
   Masaaki Saitow         : Open-shell DLPNO-CCSD energy and density
   Barbara Sandhoefer     : DKH picture change effects
   Avijit Sen             : IP-ROCIS
   Kantharuban Sivalingam : CASSCF convergence, NEVPT2, FIC-MRCI
   Bernardo de Souza      : ESD, SOC TD-DFT
   Georgi Stoychev        : AutoAux, RI-MP2 NMR
   Willem Van den Heuvel  : Paramagnetic NMR
   Boris Wezisla          : Elementary symmetry handling
   Frank Wennmohs         : Technical directorship


 We gratefully acknowledge several colleagues who have allowed us to
 interface, adapt or use parts of their codes:
   Stefan Grimme, W. Hujo, H. Kruse,             : VdW corrections, initial TS optimization,
                  C. Bannwarth                     DFT functionals, gCP, sTDA/sTD-DF
   Ed Valeev, F. Pavosevic, A. Kumar             : LibInt (2-el integral package), F12 methods
   Garnet Chan, S. Sharma, J. Yang, R. Olivares  : DMRG
   Ulf Ekstrom                                   : XCFun DFT Library
   Mihaly Kallay                                 : mrcc  (arbitrary order and MRCC methods)
   Andreas Klamt, Michael Diedenhofen            : otool_cosmo (COSMO solvation model)
   Jiri Pittner, Ondrej Demel                    : Mk-CCSD
   Frank Weinhold                                : gennbo (NPA and NBO analysis)
   Christopher J. Cramer and Donald G. Truhlar   : smd solvation model
   Lars Goerigk                                  : TD-DFT with DH, B97 family of functionals
   V. Asgeirsson, H. Jonsson                     : NEB implementation
   FAccTs GmbH                                   : IRC, NEB, NEB-TS, Multilevel, MM, QM/MM, CI optimization
   S Lehtola, MJT Oliveira, MAL Marques          : LibXC Library


 Your calculation uses the libint2 library for the computation of 2-el integrals
 For citations please refer to: http://libint.valeyev.net

 Your ORCA version has been built with support for libXC version: 4.2.3
 For citations please refer to: https://tddft.org/programs/libxc/

 This ORCA versions uses:
   CBLAS   interface :  Fast vector & matrix operations
   LAPACKE interface :  Fast linear algebra routines
   SCALAPACK package :  Parallel linear algebra routines


Your calculation utilizes the DFT-NL dispersion correction.
Cite in your paper:
Vydrov, O. A.; Van Voorhis, T. J. Chem. Phys. 2010, 133, 244103
Hujo, W.; Grimme, S. J. Chem. Theory Comput. 2011, 7, 3866 
   

----- Orbital basis set information -----
Your calculation utilizes the basis: def2-TZVPPD
   F. Weigend and R. Ahlrichs, Phys. Chem. Chem. Phys. 7, 3297 (2005).
   D. Rappoport and F. Furche, J. Chem. Phys. 133 134105 (2010).

----- AuxJK basis set information -----
Your calculation utilizes the auxiliary basis: def2/JK
   H-Ba, Hf-Rn: F. Weigend, J. Comput. Chem. 29, 167 (2008).

================================================================================
                                        WARNINGS
                       Please study these warnings very carefully!
================================================================================


INFO   : the flag for use of LIBINT has been found!

================================================================================
                                       INPUT FILE
================================================================================
NAME = MOR02_bz.in
|  1> #
|  2> # MOR02_bz wB97M-V/Def2-TZVPPD
|  3> #
|  4> ! wb97m-v def2-tzvppd def2/jk grid4 nofinalgrid
|  5> 
|  6> *xyz 0 1
|  7> C        1.391947    0.103893   -0.000005 
|  8> C        0.785946   -1.153510   -0.000002 
|  9> C       -0.605997   -1.257403   -0.000005 
| 10> C       -1.391947   -0.103892   -0.000002 
| 11> C       -0.785947    1.153509   -0.000006 
| 12> C        0.605998    1.257403   -0.000002 
| 13> H        2.475503    0.184769    0.000018 
| 14> H        1.397775   -2.051448    0.000027 
| 15> H       -1.077745   -2.236217    0.000018 
| 16> H       -2.475502   -0.184774    0.000031 
| 17> H       -1.397773    2.051449    0.000014 
| 18> H        1.077742    2.236219    0.000031 
| 19> *
| 20> 
| 21> %maxcore 5000
| 22> 
| 23> %pal
| 24> nprocs = 24
| 25> end
| 26> 
| 27> 
| 28>                          ****END OF INPUT****
================================================================================

                       ****************************
                       * Single Point Calculation *
                       ****************************

---------------------------------
CARTESIAN COORDINATES (ANGSTROEM)
---------------------------------
  C      1.391947    0.103893   -0.000005
  C      0.785946   -1.153510   -0.000002
  C     -0.605997   -1.257403   -0.000005
  C     -1.391947   -0.103892   -0.000002
  C     -0.785947    1.153509   -0.000006
  C      0.605998    1.257403   -0.000002
  H      2.475503    0.184769    0.000018
  H      1.397775   -2.051448    0.000027
  H     -1.077745   -2.236217    0.000018
  H     -2.475502   -0.184774    0.000031
  H     -1.397773    2.051449    0.000014
  H      1.077742    2.236219    0.000031

----------------------------
CARTESIAN COORDINATES (A.U.)
----------------------------
  NO LB      ZA    FRAG     MASS         X           Y           Z
   0 C     6.0000    0    12.011    2.630399    0.196329   -0.000009
   1 C     6.0000    0    12.011    1.485223   -2.179818   -0.000004
   2 C     6.0000    0    12.011   -1.145168   -2.376147   -0.000009
   3 C     6.0000    0    12.011   -2.630399   -0.196327   -0.000004
   4 C     6.0000    0    12.011   -1.485225    2.179816   -0.000011
   5 C     6.0000    0    12.011    1.145170    2.376147   -0.000004
   6 H     1.0000    0     1.008    4.678023    0.349163    0.000034
   7 H     1.0000    0     1.008    2.641412   -3.876675    0.000051
   8 H     1.0000    0     1.008   -2.036643   -4.225838    0.000034
   9 H     1.0000    0     1.008   -4.678021   -0.349172    0.000059
  10 H     1.0000    0     1.008   -2.641408    3.876677    0.000026
  11 H     1.0000    0     1.008    2.036637    4.225841    0.000059

--------------------------------
INTERNAL COORDINATES (ANGSTROEM)
--------------------------------
 C      0   0   0     0.000000000000     0.00000000     0.00000000
 C      1   0   0     1.395815000786     0.00000000     0.00000000
 C      2   1   0     1.395814841126   120.00015529     0.00000000
 C      3   2   1     1.395816975692   120.00016495     0.00000000
 C      4   3   2     1.395812764957   119.99968110     0.00000000
 C      1   2   3     1.395815586211   119.99969057     0.00000000
 H      1   2   3     1.086570077372   120.00018922   179.99874176
 H      2   1   3     1.086566784844   119.99903336   180.00148136
 H      3   2   1     1.086564780687   120.00072526   180.00125825
 H      4   3   2     1.086569527015   119.99981156   180.00215151
 H      5   4   3     1.086566748192   119.99922480   180.00107556
 H      6   1   2     1.086564845962   119.99935638   179.99784849

---------------------------
INTERNAL COORDINATES (A.U.)
---------------------------
 C      0   0   0     0.000000000000     0.00000000     0.00000000
 C      1   0   0     2.637708085104     0.00000000     0.00000000
 C      2   1   0     2.637707783391   120.00015529     0.00000000
 C      3   2   1     2.637711817136   120.00016495     0.00000000
 C      4   3   2     2.637703860000   119.99968110     0.00000000
 C      1   2   3     2.637709191398   119.99969057     0.00000000
 H      1   2   3     2.053319871547   120.00018922   179.99874176
 H      2   1   3     2.053313649570   119.99903336   180.00148136
 H      3   2   1     2.053309862262   120.00072526   180.00125825
 H      4   3   2     2.053318831523   119.99981156   180.00215151
 H      5   4   3     2.053313580308   119.99922480   180.00107556
 H      6   1   2     2.053309985615   119.99935638   179.99784849

---------------------
BASIS SET INFORMATION
---------------------
There are 2 groups of distinct atoms

 Group   1 Type C   : 12s6p3d1f contracted to 6s3p3d1f pattern {621111/411/111/1}
 Group   2 Type H   : 5s3p1d contracted to 3s3p1d pattern {311/111/1}

Atom   0C    basis set group =>   1
Atom   1C    basis set group =>   1
Atom   2C    basis set group =>   1
Atom   3C    basis set group =>   1
Atom   4C    basis set group =>   1
Atom   5C    basis set group =>   1
Atom   6H    basis set group =>   2
Atom   7H    basis set group =>   2
Atom   8H    basis set group =>   2
Atom   9H    basis set group =>   2
Atom  10H    basis set group =>   2
Atom  11H    basis set group =>   2
----------------------------------
AUXILIARY/JK BASIS SET INFORMATION
----------------------------------
There are 2 groups of distinct atoms

 Group   1 Type C   : 14s10p6d2f1g contracted to 10s8p5d1f1g pattern {5111111111/31111111/21111/2/1}
 Group   2 Type H   : 4s2p2d contracted to 2s2p2d pattern {31/11/11}

Atom   0C    basis set group =>   1
Atom   1C    basis set group =>   1
Atom   2C    basis set group =>   1
Atom   3C    basis set group =>   1
Atom   4C    basis set group =>   1
Atom   5C    basis set group =>   1
Atom   6H    basis set group =>   2
Atom   7H    basis set group =>   2
Atom   8H    basis set group =>   2
Atom   9H    basis set group =>   2
Atom  10H    basis set group =>   2
Atom  11H    basis set group =>   2


           ************************************************************
           *        Program running with 24 parallel MPI-processes    *
           *              working on a common directory               *
           ************************************************************
------------------------------------------------------------------------------
                           ORCA GTO INTEGRAL CALCULATION
------------------------------------------------------------------------------

                         BASIS SET STATISTICS AND STARTUP INFO

 # of primitive gaussian shells          ...  186
 # of primitive gaussian functions       ...  426
 # of contracted shells                  ...  120
 # of contracted basis functions         ...  324
 Highest angular momentum                ...    3
 Maximum contraction depth               ...    6
 Integral package used                   ... LIBINT
 Integral threshhold            Thresh   ...  1.000e-10
 Primitive cut-off              TCut     ...  1.000e-11


------------------------------ INTEGRAL EVALUATION ----------------------------


 * One electron integrals 
 Pre-screening matrix                    ... done
 Shell pair data                         ... done (   0.002 sec)



           ************************************************************
           *        Program running with 24 parallel MPI-processes    *
           *              working on a common directory               *
           ************************************************************
-------------------------------------------------------------------------------
                                 ORCA SCF
-------------------------------------------------------------------------------

------------
SCF SETTINGS
------------
Hamiltonian:
 Density Functional     Method          .... DFT(GTOs)
 Exchange Functional    Exchange        .... WB97M-V
 Correlation Functional Correlation     .... WB97M-V
 Gradients option       PostSCFGGA      .... off
 Hybrid DFT is turned on
   Fraction HF Exchange ScalHFX         ....  0.150000
   Scaling of DF-GGA-X  ScalDFX         ....  0.000000
   Scaling of DF-GGA-C  ScalDFC         ....  1.000000
   Scaling of DF-LDA-C  ScalLDAC        ....  1.000000
   Perturbative correction              ....  0.000000
   Density functional embedding theory  .... OFF
 Long-range corrected/Screened/Range-Separated Hybrid DFT is turned on
   Amount of maximum screened exact exchange              ....  0.850000
   Range separation parameter mu (erf(mu*r12)/r12)        ....  0.300000
   NL short-range parameter             ....  6.000000
   NL long-range parameter              ....  0.010000


General Settings:
 Integral files         IntName         .... MOR02_bz
 Hartree-Fock type      HFTyp           .... RHF
 Total Charge           Charge          ....    0
 Multiplicity           Mult            ....    1
 Number of Electrons    NEL             ....   42
 Basis Dimension        Dim             ....  324
 Nuclear Repulsion      ENuc            ....    203.2982348504 Eh

Convergence Acceleration:
 DIIS                   CNVDIIS         .... on
   Start iteration      DIISMaxIt       ....    12
   Startup error        DIISStart       ....  0.200000
   # of expansion vecs  DIISMaxEq       ....     5
   Bias factor          DIISBfac        ....   1.050
   Max. coefficient     DIISMaxC        ....  10.000
 Newton-Raphson         CNVNR           .... off
 SOSCF                  CNVSOSCF        .... on
   Start iteration      SOSCFMaxIt      ....   150
   Startup grad/error   SOSCFStart      ....  0.003300
 Level Shifting         CNVShift        .... on
   Level shift para.    LevelShift      ....    0.2500
   Turn off err/grad.   ShiftErr        ....    0.0010
 Zerner damping         CNVZerner       .... off
 Static damping         CNVDamp         .... on
   Fraction old density DampFac         ....    0.7000
   Max. Damping (<1)    DampMax         ....    0.9800
   Min. Damping (>=0)   DampMin         ....    0.0000
   Turn off err/grad.   DampErr         ....    0.1000
 Fernandez-Rico         CNVRico         .... off

SCF Procedure:
 Maximum # iterations   MaxIter         ....   125
 SCF integral mode      SCFMode         .... Direct
   Integral package                     .... LIBINT
 Reset frequency        DirectResetFreq ....    20
 Integral Threshold     Thresh          ....  1.000e-10 Eh
 Primitive CutOff       TCut            ....  1.000e-11 Eh

Convergence Tolerance:
 Convergence Check Mode ConvCheckMode   .... Total+1el-Energy
 Convergence forced     ConvForced      .... 0
 Energy Change          TolE            ....  1.000e-06 Eh
 1-El. energy change                    ....  1.000e-03 Eh
 Orbital Gradient       TolG            ....  5.000e-05
 Orbital Rotation angle TolX            ....  5.000e-05
 DIIS Error             TolErr          ....  1.000e-06


Diagonalization of the overlap matrix:
Smallest eigenvalue                        ... 6.317e-07
Time for diagonalization                   ...    0.018 sec
Threshold for overlap eigenvalues          ... 1.000e-08
Number of eigenvalues below threshold      ... 0
Time for construction of square roots      ...    0.015 sec
Total time needed                          ...    0.034 sec

-------------------
DFT GRID GENERATION
-------------------

General Integration Accuracy     IntAcc      ...  4.670
Radial Grid Type                 RadialGrid  ... Gauss-Chebyshev
Angular Grid (max. acc.)         AngularGrid ... Lebedev-302
Angular grid pruning method      GridPruning ... 3 (G Style)
Weight generation scheme         WeightScheme... Becke
Basis function cutoff            BFCut       ...    1.0000e-10
Integration weight cutoff        WCut        ...    1.0000e-14
Grids for H and He will be reduced by one unit

# of grid points (after initial pruning)     ...  57636 (   0.0 sec)
# of grid points (after weights+screening)   ...  53399 (   0.0 sec)
nearest neighbour list constructed           ...    0.0 sec
Grid point re-assignment to atoms done       ...    0.0 sec
Grid point division into batches done        ...    0.3 sec
Reduced shell lists constructed in    0.3 sec

Total number of grid points                  ...    53399
Total number of batches                      ...      838
Average number of points per batch           ...       63
Average number of grid points per atom       ...     4450
Average number of shells per batch           ...    95.08 (79.24%)
Average number of basis functions per batch  ...   266.97 (82.40%)
Average number of large shells per batch     ...    82.03 (86.27%)
Average number of large basis fcns per batch ...   228.47 (85.58%)
Maximum spatial batch extension              ...   3.14,  3.03, 16.53 au
Average spatial batch extension              ...   0.06,  0.07,  0.10 au

Time for grid setup =    0.339 sec

------------------------------
INITIAL GUESS: MODEL POTENTIAL
------------------------------
Loading Hartree-Fock densities                     ... done
Calculating cut-offs                               ... done
Setting up the integral package                    ... done
Initializing the effective Hamiltonian             ... done
Starting the Coulomb interaction                   ... done (   0.0 sec)
Reading the grid                                   ... done
Mapping shells                                     ... done
Starting the XC term evaluation                    ... done (   0.1 sec)
  promolecular density results
     # of electrons  =     41.996931039
     EX              =    -32.422098931
     EC              =     -1.367913847
     EX+EC           =    -33.790012778
Transforming the Hamiltonian                       ... done (   0.0 sec)
Diagonalizing the Hamiltonian                      ... done (   0.0 sec)
Back transforming the eigenvectors                 ... done (   0.0 sec)
Now organizing SCF variables                       ... done
                      ------------------
                      INITIAL GUESS DONE (   0.5 sec)
                      ------------------
--------------
SCF ITERATIONS
--------------
ITER       Energy         Delta-E        Max-DP      RMS-DP      [F,P]     Damp
               ***  Starting incremental Fock matrix formation  ***
  0   -232.2317141168   0.000000000000 0.09357482  0.00216973  0.1437599 0.7000
  1   -232.2937898469  -0.062075730038 0.06700419  0.00171017  0.0868956 0.7000
                               ***Turning on DIIS***
  2   -232.3272205250  -0.033430678157 0.15500394  0.00411723  0.0447017 0.0000
  3   -232.3822130456  -0.054992520565 0.02525388  0.00054160  0.0333139 0.0000
  4   -232.3899155725  -0.007702526971 0.00900107  0.00021882  0.0040802 0.0000
                      *** Initiating the SOSCF procedure ***
                           *** Shutting down DIIS ***
                      *** Re-Reading the Fockian *** 
                      *** Removing any level shift *** 
ITER      Energy       Delta-E        Grad      Rot      Max-DP    RMS-DP
  5   -232.39004943  -0.0001338536  0.000637  0.000637  0.005979  0.000096
               *** Restarting incremental Fock matrix formation ***
  6   -232.39005831  -0.0000088823  0.000102  0.000139  0.002370  0.000034
  7   -232.39005858  -0.0000002741  0.000036  0.000078  0.014316  0.000253
  8   -232.39005860  -0.0000000212  0.000014  0.000018  0.002852  0.000043
                 **** Energy Check signals convergence ****
              ***Rediagonalizing the Fockian in SOSCF/NRSCF***

               *****************************************************
               *                     SUCCESS                       *
               *           SCF CONVERGED AFTER   9 CYCLES          *
               *****************************************************


Setting up the DFT-NL grid :

General Integration Accuracy     IntAcc      ...  4.340
Radial Grid Type                 RadialGrid  ... Gauss-Chebyshev
Angular Grid (max. acc.)         AngularGrid ... Lebedev-110
Angular grid pruning method      GridPruning ... 3 (G Style)
Weight generation scheme         WeightScheme... Becke
Basis function cutoff            BFCut       ...    1.0000e-10
Integration weight cutoff        WCut        ...    1.0000e-14
Grids for H and He will be reduced by one unit

# of grid points (after initial pruning)     ...  14700 (   0.0 sec)
# of grid points (after weights+screening)   ...  13770 (   0.0 sec)
nearest neighbour list constructed           ...    0.0 sec
Grid point re-assignment to atoms done       ...    0.0 sec
Grid point division into batches done        ...    0.0 sec
Reduced shell lists constructed in    0.0 sec

Total number of grid points                  ...    13770
Total number of batches                      ...      220
Average number of points per batch           ...       62
Average number of grid points per atom       ...     1148
Average number of shells per batch           ...    93.82 (78.18%)
Average number of basis functions per batch  ...   265.64 (81.99%)
Average number of large shells per batch     ...    83.55 (89.05%)
Average number of large basis fcns per batch ...   235.18 (88.54%)
Maximum spatial batch extension              ...   3.07,  3.15, 19.29 au
Average spatial batch extension              ...   0.10,  0.10,  0.24 au

Final grid set up in    0.0 sec

-------------------------------------------------------------------------------
                         DFT-NL dispersion correction                          
-------------------------------------------------------------------------------

SC Energy -232.390058614 
NL    Energy 0.160931778 
SC+NL Energy -232.229126836 
NL done in    0.1 sec
-------------------------------------------------------------------------------

----------------
TOTAL SCF ENERGY
----------------

Total Energy       :         -232.22912684 Eh           -6319.27581 eV

Components:
Nuclear Repulsion  :          203.29823485 Eh            5532.02621 eV
Electronic Energy  :         -435.52736169 Eh          -11851.30202 eV
One Electron Energy:         -713.71908442 Eh          -19421.28365 eV
Two Electron Energy:          278.19172273 Eh            7569.98163 eV

Virial components:
Potential Energy   :         -463.64649245 Eh          -12616.46247 eV
Kinetic Energy     :          231.41736562 Eh            6297.18666 eV
Virial Ratio       :            2.00350778


DFT components:
N(Alpha)           :       20.999992066805 electrons
N(Beta)            :       20.999992066805 electrons
N(Total)           :       41.999984133610 electrons
E(X)               :      -23.055626849129 Eh       
E(C)               :       -1.284090418317 Eh       
NL Energy, E(C,NL) :        0.160931778358 Eh       
E(XC)              :      -24.178785489088 Eh       
DFET-embed. en.    :        0.000000000000 Eh       

---------------
SCF CONVERGENCE
---------------

  Last Energy change         ...   -1.0220e-08  Tolerance :   1.0000e-06
  Last MAX-Density change    ...    9.0658e-03  Tolerance :   1.0000e-05
  Last RMS-Density change    ...    1.4753e-04  Tolerance :   1.0000e-06
  Last Orbital Gradient      ...    1.4133e-05  Tolerance :   5.0000e-05
  Last Orbital Rotation      ...    9.5371e-06  Tolerance :   5.0000e-05

             **** THE GBW FILE WAS UPDATED (MOR02_bz.gbw) ****
             **** DENSITY FILE WAS UPDATED (MOR02_bz.scfp) ****
             **** ENERGY FILE WAS UPDATED (MOR02_bz.en.tmp) ****
             **** THE GBW FILE WAS UPDATED (MOR02_bz.gbw) ****
             **** DENSITY FILE WAS UPDATED (MOR02_bz.scfp) ****
----------------
ORBITAL ENERGIES
----------------

  NO   OCC          E(Eh)            E(eV) 
   0   2.0000     -10.352759      -281.7129 
   1   2.0000     -10.352541      -281.7070 
   2   2.0000     -10.352540      -281.7069 
   3   2.0000     -10.352025      -281.6929 
   4   2.0000     -10.352023      -281.6929 
   5   2.0000     -10.351788      -281.6865 
   6   2.0000      -0.982543       -26.7364 
   7   2.0000      -0.870543       -23.6887 
   8   2.0000      -0.870542       -23.6886 
   9   2.0000      -0.720001       -19.5922 
  10   2.0000      -0.719999       -19.5922 
  11   2.0000      -0.638019       -17.3614 
  12   2.0000      -0.570028       -15.5112 
  13   2.0000      -0.554805       -15.0970 
  14   2.0000      -0.526719       -14.3328 
  15   2.0000      -0.526718       -14.3327 
  16   2.0000      -0.482448       -13.1281 
  17   2.0000      -0.443907       -12.0793 
  18   2.0000      -0.443904       -12.0792 
  19   2.0000      -0.346829        -9.4377 
  20   2.0000      -0.346827        -9.4376 
  21   0.0000       0.041839         1.1385 
  22   0.0000       0.056930         1.5491 
  23   0.0000       0.057003         1.5511 
  24   0.0000       0.060705         1.6519 
  25   0.0000       0.060710         1.6520 
  26   0.0000       0.077982         2.1220 
  27   0.0000       0.078000         2.1225 
  28   0.0000       0.110251         3.0001 
  29   0.0000       0.115562         3.1446 
  30   0.0000       0.164871         4.4864 
  31   0.0000       0.171166         4.6577 
  32   0.0000       0.171325         4.6620 
  33   0.0000       0.174801         4.7566 
  34   0.0000       0.176571         4.8047 
  35   0.0000       0.176632         4.8064 
  36   0.0000       0.208889         5.6842 
  37   0.0000       0.208935         5.6854 
  38   0.0000       0.218344         5.9414 
  39   0.0000       0.243287         6.6202 
  40   0.0000       0.243335         6.6215 
  41   0.0000       0.247508         6.7350 
  42   0.0000       0.256513         6.9801 
  43   0.0000       0.256536         6.9807 
  44   0.0000       0.263749         7.1770 
  45   0.0000       0.276173         7.5151 
  46   0.0000       0.276203         7.5159 
  47   0.0000       0.294899         8.0246 
  48   0.0000       0.294962         8.0263 
  49   0.0000       0.299728         8.1560 
  50   0.0000       0.299774         8.1573 
  51   0.0000       0.314206         8.5500 
  52   0.0000       0.324863         8.8400 
  53   0.0000       0.332558         9.0494 
  54   0.0000       0.347488         9.4556 
  55   0.0000       0.352666         9.5965 
  56   0.0000       0.363552         9.8928 
  57   0.0000       0.363619         9.8946 
  58   0.0000       0.384614        10.4659 
  59   0.0000       0.384810        10.4712 
  60   0.0000       0.390041        10.6136 
  61   0.0000       0.390088        10.6148 
  62   0.0000       0.391000        10.6397 
  63   0.0000       0.397762        10.8236 
  64   0.0000       0.409079        11.1316 
  65   0.0000       0.409151        11.1336 
  66   0.0000       0.423222        11.5164 
  67   0.0000       0.423271        11.5178 
  68   0.0000       0.430570        11.7164 
  69   0.0000       0.437112        11.8944 
  70   0.0000       0.437148        11.8954 
  71   0.0000       0.454954        12.3799 
  72   0.0000       0.473138        12.8747 
  73   0.0000       0.475443        12.9375 
  74   0.0000       0.482598        13.1321 
  75   0.0000       0.483017        13.1436 
  76   0.0000       0.513714        13.9789 
  77   0.0000       0.514213        13.9924 
  78   0.0000       0.527793        14.3620 
  79   0.0000       0.527840        14.3633 
  80   0.0000       0.528931        14.3930 
  81   0.0000       0.529012        14.3952 
  82   0.0000       0.549841        14.9619 
  83   0.0000       0.550944        14.9919 
  84   0.0000       0.585933        15.9440 
  85   0.0000       0.588924        16.0254 
  86   0.0000       0.589072        16.0295 
  87   0.0000       0.594753        16.1840 
  88   0.0000       0.605168        16.4674 
  89   0.0000       0.616181        16.7671 
  90   0.0000       0.616299        16.7703 
  91   0.0000       0.624584        16.9958 
  92   0.0000       0.648020        17.6335 
  93   0.0000       0.690506        18.7896 
  94   0.0000       0.690535        18.7904 
  95   0.0000       0.705574        19.1996 
  96   0.0000       0.716470        19.4961 
  97   0.0000       0.721826        19.6419 
  98   0.0000       0.728461        19.8224 
  99   0.0000       0.728493        19.8233 
 100   0.0000       0.729464        19.8497 
 101   0.0000       0.729517        19.8512 
 102   0.0000       0.759037        20.6544 
 103   0.0000       0.759098        20.6561 
 104   0.0000       0.765038        20.8177 
 105   0.0000       0.781772        21.2731 
 106   0.0000       0.786090        21.3906 
 107   0.0000       0.786167        21.3927 
 108   0.0000       0.807404        21.9706 
 109   0.0000       0.807888        21.9838 
 110   0.0000       0.812440        22.1076 
 111   0.0000       0.817410        22.2429 
 112   0.0000       0.819215        22.2920 
 113   0.0000       0.820370        22.3234 
 114   0.0000       0.861214        23.4348 
 115   0.0000       0.871211        23.7069 
 116   0.0000       0.871526        23.7154 
 117   0.0000       0.933619        25.4051 
 118   0.0000       0.955236        25.9933 
 119   0.0000       0.966949        26.3120 
 120   0.0000       0.966988        26.3131 
 121   0.0000       0.980273        26.6746 
 122   0.0000       0.980329        26.6761 
 123   0.0000       0.995676        27.0937 
 124   0.0000       1.008775        27.4502 
 125   0.0000       1.030899        28.0522 
 126   0.0000       1.031115        28.0581 
 127   0.0000       1.046409        28.4742 
 128   0.0000       1.065918        29.0051 
 129   0.0000       1.122753        30.5517 
 130   0.0000       1.122791        30.5527 
 131   0.0000       1.167396        31.7665 
 132   0.0000       1.185603        32.2619 
 133   0.0000       1.251613        34.0581 
 134   0.0000       1.251616        34.0582 
 135   0.0000       1.269590        34.5473 
 136   0.0000       1.269644        34.5488 
 137   0.0000       1.298696        35.3393 
 138   0.0000       1.299549        35.3625 
 139   0.0000       1.314104        35.7586 
 140   0.0000       1.314225        35.7619 
 141   0.0000       1.370419        37.2910 
 142   0.0000       1.370426        37.2912 
 143   0.0000       1.378950        37.5231 
 144   0.0000       1.431661        38.9575 
 145   0.0000       1.474286        40.1174 
 146   0.0000       1.474517        40.1236 
 147   0.0000       1.499888        40.8140 
 148   0.0000       1.500175        40.8218 
 149   0.0000       1.524841        41.4930 
 150   0.0000       1.524859        41.4935 
 151   0.0000       1.564093        42.5611 
 152   0.0000       1.584488        43.1161 
 153   0.0000       1.584688        43.1216 
 154   0.0000       1.595871        43.4258 
 155   0.0000       1.642067        44.6829 
 156   0.0000       1.642096        44.6837 
 157   0.0000       1.675822        45.6014 
 158   0.0000       1.726490        46.9802 
 159   0.0000       1.728942        47.0469 
 160   0.0000       1.784179        48.5500 
 161   0.0000       1.784725        48.5648 
 162   0.0000       1.801687        49.0264 
 163   0.0000       1.833210        49.8842 
 164   0.0000       1.833241        49.8850 
 165   0.0000       1.846784        50.2536 
 166   0.0000       1.846821        50.2546 
 167   0.0000       1.906530        51.8793 
 168   0.0000       1.906574        51.8805 
 169   0.0000       1.927964        52.4626 
 170   0.0000       1.960643        53.3518 
 171   0.0000       1.960654        53.3521 
 172   0.0000       1.987683        54.0876 
 173   0.0000       1.987696        54.0880 
 174   0.0000       2.025108        55.1060 
 175   0.0000       2.055387        55.9299 
 176   0.0000       2.162063        58.8327 
 177   0.0000       2.162137        58.8348 
 178   0.0000       2.193459        59.6870 
 179   0.0000       2.193532        59.6890 
 180   0.0000       2.194915        59.7267 
 181   0.0000       2.234657        60.8081 
 182   0.0000       2.306696        62.7684 
 183   0.0000       2.429987        66.1233 
 184   0.0000       2.456899        66.8556 
 185   0.0000       2.456916        66.8561 
 186   0.0000       2.457901        66.8829 
 187   0.0000       2.479481        67.4701 
 188   0.0000       2.479512        67.4710 
 189   0.0000       2.568381        69.8892 
 190   0.0000       2.568409        69.8900 
 191   0.0000       2.616809        71.2070 
 192   0.0000       2.712943        73.8229 
 193   0.0000       2.728631        74.2498 
 194   0.0000       2.772934        75.4554 
 195   0.0000       2.772952        75.4559 
 196   0.0000       2.805703        76.3471 
 197   0.0000       2.812495        76.5319 
 198   0.0000       2.812510        76.5323 
 199   0.0000       2.873975        78.2048 
 200   0.0000       2.873986        78.2051 
 201   0.0000       2.924562        79.5814 
 202   0.0000       2.924588        79.5821 
 203   0.0000       2.955723        80.4293 
 204   0.0000       2.974800        80.9484 
 205   0.0000       2.974855        80.9499 
 206   0.0000       3.086800        83.9961 
 207   0.0000       3.095890        84.2435 
 208   0.0000       3.095911        84.2440 
 209   0.0000       3.101198        84.3879 
 210   0.0000       3.120471        84.9123 
 211   0.0000       3.164563        86.1121 
 212   0.0000       3.164579        86.1126 
 213   0.0000       3.198228        87.0282 
 214   0.0000       3.198283        87.0297 
 215   0.0000       3.219092        87.5960 
 216   0.0000       3.227859        87.8345 
 217   0.0000       3.227883        87.8352 
 218   0.0000       3.238746        88.1308 
 219   0.0000       3.238759        88.1311 
 220   0.0000       3.254062        88.5475 
 221   0.0000       3.310476        90.0826 
 222   0.0000       3.310603        90.0861 
 223   0.0000       3.397434        92.4489 
 224   0.0000       3.397462        92.4496 
 225   0.0000       3.424530        93.1862 
 226   0.0000       3.434463        93.4565 
 227   0.0000       3.434523        93.4581 
 228   0.0000       3.448150        93.8289 
 229   0.0000       3.449205        93.8576 
 230   0.0000       3.468770        94.3900 
 231   0.0000       3.468778        94.3902 
 232   0.0000       3.492490        95.0355 
 233   0.0000       3.496493        95.1444 
 234   0.0000       3.496523        95.1452 
 235   0.0000       3.524960        95.9190 
 236   0.0000       3.561318        96.9084 
 237   0.0000       3.561569        96.9152 
 238   0.0000       3.585750        97.5732 
 239   0.0000       3.585770        97.5738 
 240   0.0000       3.668474        99.8243 
 241   0.0000       3.694665       100.5369 
 242   0.0000       3.708942       100.9254 
 243   0.0000       3.727374       101.4270 
 244   0.0000       3.727410       101.4280 
 245   0.0000       3.747973       101.9875 
 246   0.0000       3.827965       104.1642 
 247   0.0000       3.831261       104.2539 
 248   0.0000       3.831277       104.2543 
 249   0.0000       3.836297       104.3909 
 250   0.0000       3.843720       104.5929 
 251   0.0000       3.891822       105.9019 
 252   0.0000       3.910587       106.4125 
 253   0.0000       3.910593       106.4126 
 254   0.0000       3.917297       106.5951 
 255   0.0000       3.917313       106.5955 
 256   0.0000       3.943234       107.3009 
 257   0.0000       3.992658       108.6457 
 258   0.0000       3.992680       108.6463 
 259   0.0000       4.064031       110.5879 
 260   0.0000       4.064041       110.5882 
 261   0.0000       4.077477       110.9538 
 262   0.0000       4.077489       110.9541 
 263   0.0000       4.201066       114.3168 
 264   0.0000       4.201072       114.3170 
 265   0.0000       4.235480       115.2533 
 266   0.0000       4.263610       116.0187 
 267   0.0000       4.290070       116.7387 
 268   0.0000       4.291913       116.7889 
 269   0.0000       4.291950       116.7899 
 270   0.0000       4.311921       117.3333 
 271   0.0000       4.322765       117.6284 
 272   0.0000       4.322785       117.6290 
 273   0.0000       4.343210       118.1848 
 274   0.0000       4.343221       118.1850 
 275   0.0000       4.392273       119.5198 
 276   0.0000       4.392314       119.5209 
 277   0.0000       4.428670       120.5102 
 278   0.0000       4.428725       120.5117 
 279   0.0000       4.460056       121.3643 
 280   0.0000       4.564896       124.2171 
 281   0.0000       4.564930       124.2181 
 282   0.0000       4.654083       126.6440 
 283   0.0000       4.659778       126.7990 
 284   0.0000       4.751016       129.2817 
 285   0.0000       4.751023       129.2819 
 286   0.0000       4.797304       130.5413 
 287   0.0000       4.797327       130.5419 
 288   0.0000       4.799102       130.5902 
 289   0.0000       4.819370       131.1417 
 290   0.0000       4.819385       131.1421 
 291   0.0000       4.843320       131.7934 
 292   0.0000       4.843364       131.7946 
 293   0.0000       4.878753       132.7576 
 294   0.0000       4.902263       133.3974 
 295   0.0000       4.922922       133.9595 
 296   0.0000       5.036917       137.0615 
 297   0.0000       5.036950       137.0624 
 298   0.0000       5.083249       138.3222 
 299   0.0000       5.233200       142.4026 
 300   0.0000       5.233209       142.4029 
 301   0.0000       5.281299       143.7115 
 302   0.0000       5.281315       143.7119 
 303   0.0000       5.379300       146.3782 
 304   0.0000       5.405577       147.0932 
 305   0.0000       5.405593       147.0937 
 306   0.0000       5.468894       148.8162 
 307   0.0000       5.565687       151.4500 
 308   0.0000       5.632226       153.2607 
 309   0.0000       5.632286       153.2623 
 310   0.0000       5.743750       156.2954 
 311   0.0000       5.804210       157.9406 
 312   0.0000       5.804233       157.9412 
 313   0.0000       5.890928       160.3003 
 314   0.0000       6.183108       168.2509 
 315   0.0000       6.183129       168.2515 
 316   0.0000       6.301496       171.4724 
 317   0.0000       6.885015       187.3508 
 318   0.0000      23.285075       633.6191 
 319   0.0000      23.516242       639.9095 
 320   0.0000      23.516260       639.9100 
 321   0.0000      23.641826       643.3268 
 322   0.0000      23.641840       643.3272 
 323   0.0000      24.470148       665.8666 

                    ********************************
                    * MULLIKEN POPULATION ANALYSIS *
                    ********************************

-----------------------
MULLIKEN ATOMIC CHARGES
-----------------------
   0 C :   -0.154345
   1 C :   -0.151434
   2 C :   -0.149748
   3 C :   -0.154343
   4 C :   -0.150740
   5 C :   -0.149720
   6 H :    0.151603
   7 H :    0.152366
   8 H :    0.151186
   9 H :    0.151712
  10 H :    0.152437
  11 H :    0.151025
Sum of atomic charges:    0.0000000

--------------------------------
MULLIKEN REDUCED ORBITAL CHARGES
--------------------------------
  0 C s       :     3.397239  s :     3.397239
      pz      :     0.925999  p :     2.713997
      px      :     0.990197
      py      :     0.797801
      dz2     :    -0.000462  d :     0.035890
      dxz     :     0.004080
      dyz     :     0.044196
      dx2y2   :    -0.013070
      dxy     :     0.001147
      f0      :     0.001433  f :     0.007219
      f+1     :     0.000559
      f-1     :     0.000625
      f+2     :     0.000282
      f-2     :     0.000970
      f+3     :     0.001112
      f-3     :     0.002239
  1 C s       :     3.397550  s :     3.397550
      pz      :     0.925594  p :     2.710482
      px      :     0.856090
      py      :     0.928797
      dz2     :    -0.000409  d :     0.036182
      dxz     :     0.031538
      dyz     :     0.016514
      dx2y2   :    -0.000410
      dxy     :    -0.011050
      f0      :     0.001433  f :     0.007220
      f+1     :     0.000604
      f-1     :     0.000580
      f+2     :     0.000890
      f-2     :     0.000362
      f+3     :     0.001112
      f-3     :     0.002239
  2 C s       :     3.395362  s :     3.395362
      pz      :     0.925028  p :     2.711053
      px      :     0.831140
      py      :     0.954884
      dz2     :    -0.000555  d :     0.036114
      dxz     :     0.036677
      dyz     :     0.011391
      dx2y2   :    -0.004230
      dxy     :    -0.007168
      f0      :     0.001433  f :     0.007219
      f+1     :     0.000613
      f-1     :     0.000571
      f+2     :     0.000706
      f-2     :     0.000546
      f+3     :     0.001111
      f-3     :     0.002239
  3 C s       :     3.397509  s :     3.397509
      pz      :     0.925998  p :     2.713760
      px      :     0.989979
      py      :     0.797783
      dz2     :    -0.000464  d :     0.035855
      dxz     :     0.004080
      dyz     :     0.044196
      dx2y2   :    -0.013009
      dxy     :     0.001052
      f0      :     0.001433  f :     0.007219
      f+1     :     0.000559
      f-1     :     0.000625
      f+2     :     0.000282
      f-2     :     0.000970
      f+3     :     0.001112
      f-3     :     0.002239
  4 C s       :     3.396955  s :     3.396955
      pz      :     0.925595  p :     2.710500
      px      :     0.855945
      py      :     0.928961
      dz2     :    -0.000429  d :     0.036065
      dxz     :     0.031538
      dyz     :     0.016514
      dx2y2   :    -0.000590
      dxy     :    -0.010967
      f0      :     0.001433  f :     0.007219
      f+1     :     0.000604
      f-1     :     0.000580
      f+2     :     0.000890
      f-2     :     0.000362
      f+3     :     0.001112
      f-3     :     0.002239
  5 C s       :     3.395678  s :     3.395678
      pz      :     0.925028  p :     2.710811
      px      :     0.831113
      py      :     0.954670
      dz2     :    -0.000535  d :     0.036012
      dxz     :     0.036676
      dyz     :     0.011391
      dx2y2   :    -0.004408
      dxy     :    -0.007112
      f0      :     0.001433  f :     0.007219
      f+1     :     0.000613
      f-1     :     0.000571
      f+2     :     0.000706
      f-2     :     0.000546
      f+3     :     0.001111
      f-3     :     0.002239
  6 H s       :     0.807994  s :     0.807994
      pz      :     0.023066  p :     0.038107
      px      :     0.005542
      py      :     0.009498
      dz2     :     0.000140  d :     0.002297
      dxz     :     0.000684
      dyz     :     0.000016
      dx2y2   :     0.000511
      dxy     :     0.000944
  7 H s       :     0.807623  s :     0.807623
      pz      :     0.022919  p :     0.037714
      px      :     0.008099
      py      :     0.006696
      dz2     :     0.000140  d :     0.002297
      dxz     :     0.000227
      dyz     :     0.000474
      dx2y2   :     0.000894
      dxy     :     0.000562
  8 H s       :     0.808786  s :     0.808786
      pz      :     0.022844  p :     0.037732
      px      :     0.008590
      py      :     0.006297
      dz2     :     0.000141  d :     0.002297
      dxz     :     0.000140
      dyz     :     0.000561
      dx2y2   :     0.000779
      dxy     :     0.000677
  9 H s       :     0.807877  s :     0.807877
      pz      :     0.023066  p :     0.038114
      px      :     0.005540
      py      :     0.009507
      dz2     :     0.000140  d :     0.002297
      dxz     :     0.000684
      dyz     :     0.000016
      dx2y2   :     0.000511
      dxy     :     0.000944
 10 H s       :     0.807565  s :     0.807565
      pz      :     0.022919  p :     0.037701
      px      :     0.008078
      py      :     0.006704
      dz2     :     0.000140  d :     0.002297
      dxz     :     0.000227
      dyz     :     0.000474
      dx2y2   :     0.000894
      dxy     :     0.000562
 11 H s       :     0.808943  s :     0.808943
      pz      :     0.022844  p :     0.037735
      px      :     0.008603
      py      :     0.006288
      dz2     :     0.000141  d :     0.002297
      dxz     :     0.000140
      dyz     :     0.000561
      dx2y2   :     0.000779
      dxy     :     0.000677


                     *******************************
                     * LOEWDIN POPULATION ANALYSIS *
                     *******************************

----------------------
LOEWDIN ATOMIC CHARGES
----------------------
   0 C :    0.001187
   1 C :    0.001202
   2 C :    0.001216
   3 C :    0.001186
   4 C :    0.001203
   5 C :    0.001217
   6 H :   -0.001198
   7 H :   -0.001198
   8 H :   -0.001210
   9 H :   -0.001198
  10 H :   -0.001198
  11 H :   -0.001210

-------------------------------
LOEWDIN REDUCED ORBITAL CHARGES
-------------------------------
  0 C s       :     2.654195  s :     2.654195
      pz      :     0.729061  p :     2.608428
      px      :     0.921427
      py      :     0.957940
      dz2     :     0.059422  d :     0.693003
      dxz     :     0.035534
      dyz     :     0.139748
      dx2y2   :     0.280459
      dxy     :     0.177841
      f0      :     0.002468  f :     0.043188
      f+1     :     0.003348
      f-1     :     0.004000
      f+2     :     0.002101
      f-2     :     0.007117
      f+3     :     0.009016
      f-3     :     0.015137
  1 C s       :     2.654197  s :     2.654197
      pz      :     0.729046  p :     2.608410
      px      :     0.946435
      py      :     0.932929
      dz2     :     0.059420  d :     0.693003
      dxz     :     0.106920
      dyz     :     0.068362
      dx2y2   :     0.189847
      dxy     :     0.268455
      f0      :     0.002468  f :     0.043189
      f+1     :     0.003795
      f-1     :     0.003553
      f+2     :     0.006530
      f-2     :     0.002688
      f+3     :     0.009017
      f-3     :     0.015137
  2 C s       :     2.654194  s :     2.654194
      pz      :     0.729036  p :     2.608399
      px      :     0.951184
      py      :     0.928179
      dz2     :     0.059419  d :     0.693003
      dxz     :     0.120467
      dyz     :     0.054814
      dx2y2   :     0.217145
      dxy     :     0.241158
      f0      :     0.002468  f :     0.043188
      f+1     :     0.003880
      f-1     :     0.003469
      f+2     :     0.005196
      f-2     :     0.004022
      f+3     :     0.009016
      f-3     :     0.015137
  3 C s       :     2.654195  s :     2.654195
      pz      :     0.729061  p :     2.608428
      px      :     0.921427
      py      :     0.957940
      dz2     :     0.059422  d :     0.693003
      dxz     :     0.035534
      dyz     :     0.139748
      dx2y2   :     0.280459
      dxy     :     0.177841
      f0      :     0.002468  f :     0.043188
      f+1     :     0.003348
      f-1     :     0.004000
      f+2     :     0.002101
      f-2     :     0.007117
      f+3     :     0.009016
      f-3     :     0.015137
  4 C s       :     2.654196  s :     2.654196
      pz      :     0.729046  p :     2.608410
      px      :     0.946434
      py      :     0.932930
      dz2     :     0.059420  d :     0.693003
      dxz     :     0.106920
      dyz     :     0.068362
      dx2y2   :     0.189847
      dxy     :     0.268455
      f0      :     0.002468  f :     0.043189
      f+1     :     0.003795
      f-1     :     0.003553
      f+2     :     0.006530
      f-2     :     0.002688
      f+3     :     0.009017
      f-3     :     0.015137
  5 C s       :     2.654195  s :     2.654195
      pz      :     0.729036  p :     2.608398
      px      :     0.951183
      py      :     0.928180
      dz2     :     0.059419  d :     0.693002
      dxz     :     0.120467
      dyz     :     0.054814
      dx2y2   :     0.217145
      dxy     :     0.241157
      f0      :     0.002468  f :     0.043188
      f+1     :     0.003879
      f-1     :     0.003469
      f+2     :     0.005196
      f-2     :     0.004022
      f+3     :     0.009016
      f-3     :     0.015137
  6 H s       :     0.708227  s :     0.708227
      pz      :     0.075688  p :     0.263734
      px      :     0.121795
      py      :     0.066250
      dz2     :     0.002804  d :     0.029237
      dxz     :     0.008226
      dyz     :     0.000070
      dx2y2   :     0.008814
      dxy     :     0.009323
  7 H s       :     0.708225  s :     0.708225
      pz      :     0.075688  p :     0.263735
      px      :     0.083747
      py      :     0.104299
      dz2     :     0.002805  d :     0.029238
      dxz     :     0.002639
      dyz     :     0.005657
      dx2y2   :     0.009264
      dxy     :     0.008873
  8 H s       :     0.708235  s :     0.708235
      pz      :     0.075690  p :     0.263736
      px      :     0.076526
      py      :     0.111520
      dz2     :     0.002804  d :     0.029238
      dxz     :     0.001579
      dyz     :     0.006717
      dx2y2   :     0.009128
      dxy     :     0.009009
  9 H s       :     0.708226  s :     0.708226
      pz      :     0.075688  p :     0.263734
      px      :     0.121795
      py      :     0.066250
      dz2     :     0.002804  d :     0.029237
      dxz     :     0.008226
      dyz     :     0.000070
      dx2y2   :     0.008814
      dxy     :     0.009323
 10 H s       :     0.708225  s :     0.708225
      pz      :     0.075688  p :     0.263734
      px      :     0.083747
      py      :     0.104299
      dz2     :     0.002805  d :     0.029238
      dxz     :     0.002639
      dyz     :     0.005657
      dx2y2   :     0.009264
      dxy     :     0.008873
 11 H s       :     0.708236  s :     0.708236
      pz      :     0.075690  p :     0.263736
      px      :     0.076526
      py      :     0.111520
      dz2     :     0.002804  d :     0.029238
      dxz     :     0.001579
      dyz     :     0.006717
      dx2y2   :     0.009128
      dxy     :     0.009009


                      *****************************
                      * MAYER POPULATION ANALYSIS *
                      *****************************

  NA   - Mulliken gross atomic population
  ZA   - Total nuclear charge
  QA   - Mulliken gross atomic charge
  VA   - Mayer's total valence
  BVA  - Mayer's bonded valence
  FA   - Mayer's free valence

  ATOM       NA         ZA         QA         VA         BVA        FA
  0 C      6.1543     6.0000    -0.1543     3.2252     3.2252     0.0000
  1 C      6.1514     6.0000    -0.1514     3.2242     3.2242     0.0000
  2 C      6.1497     6.0000    -0.1497     3.2217     3.2217    -0.0000
  3 C      6.1543     6.0000    -0.1543     3.2247     3.2247    -0.0000
  4 C      6.1507     6.0000    -0.1507     3.2237     3.2237     0.0000
  5 C      6.1497     6.0000    -0.1497     3.2214     3.2214    -0.0000
  6 H      0.8484     1.0000     0.1516     0.9733     0.9733     0.0000
  7 H      0.8476     1.0000     0.1524     0.9723     0.9723     0.0000
  8 H      0.8488     1.0000     0.1512     0.9730     0.9730    -0.0000
  9 H      0.8483     1.0000     0.1517     0.9733     0.9733    -0.0000
 10 H      0.8476     1.0000     0.1524     0.9722     0.9722     0.0000
 11 H      0.8490     1.0000     0.1510     0.9730     0.9730    -0.0000

  Mayer bond orders larger than 0.100000
B(  0-C ,  1-C ) :   1.1514 B(  0-C ,  5-C ) :   1.1498 B(  0-C ,  6-H ) :   1.0516 
B(  1-C ,  2-C ) :   1.1490 B(  1-C ,  7-H ) :   1.0514 B(  2-C ,  3-C ) :   1.1495 
B(  2-C ,  8-H ) :   1.0518 B(  3-C ,  4-C ) :   1.1514 B(  3-C ,  9-H ) :   1.0514 
B(  4-C ,  5-C ) :   1.1484 B(  4-C , 10-H ) :   1.0513 B(  5-C , 11-H ) :   1.0521 


-------
TIMINGS
-------

Total SCF time: 0 days 0 hours 0 min 27 sec 

Total time                  ....      27.801 sec
Sum of individual times     ....      27.433 sec  ( 98.7%)

Fock matrix formation       ....      26.648 sec  ( 95.9%)
  XC integration            ....       1.389 sec  (  5.2% of F)
    Basis function eval.    ....       0.141 sec  ( 10.2% of XC)
    Density eval.           ....       0.346 sec  ( 24.9% of XC)
    XC-Functional eval.     ....       0.037 sec  (  2.7% of XC)
    XC-Potential eval.      ....       0.678 sec  ( 48.8% of XC)
Diagonalization             ....       0.106 sec  (  0.4%)
Density matrix formation    ....       0.018 sec  (  0.1%)
Population analysis         ....       0.016 sec  (  0.1%)
Initial guess               ....       0.185 sec  (  0.7%)
Orbital Transformation      ....       0.000 sec  (  0.0%)
Orbital Orthonormalization  ....       0.000 sec  (  0.0%)
DIIS solution               ....       0.044 sec  (  0.2%)
SOSCF solution              ....       0.049 sec  (  0.2%)
Grid generation             ....       0.369 sec  (  1.3%)

-------------------------   --------------------
FINAL SINGLE POINT ENERGY      -232.229126835612
-------------------------   --------------------


                            ***************************************
                            *     ORCA property calculations      *
                            ***************************************

                                    ---------------------
                                    Active property flags
                                    ---------------------
   (+) Dipole Moment


------------------------------------------------------------------------------
                       ORCA ELECTRIC PROPERTIES CALCULATION
------------------------------------------------------------------------------

Dipole Moment Calculation                       ... on
Quadrupole Moment Calculation                   ... off
Polarizability Calculation                      ... off
GBWName                                         ... MOR02_bz.gbw
Electron density file                           ... MOR02_bz.scfp
The origin for moment calculation is the CENTER OF MASS  = ( 0.000000, -0.000000 -0.000003)

-------------
DIPOLE MOMENT
-------------
                                X             Y             Z
Electronic contribution:     -0.00000       0.00000      -0.00010
Nuclear contribution   :      0.00000      -0.00000       0.00014
                        -----------------------------------------
Total Dipole Moment    :     -0.00000      -0.00000       0.00004
                        -----------------------------------------
Magnitude (a.u.)       :      0.00004
Magnitude (Debye)      :      0.00010



--------------------
Rotational spectrum 
--------------------
 
Rotational constants in cm-1:     0.189759     0.189757     0.094879 
Rotational constants in MHz :  5688.823776  5688.770067  2844.398461 

 Dipole components along the rotational axes: 
x,y,z [a.u.] :    -0.000000     0.000000     0.000040 
x,y,z [Debye]:    -0.000001     0.000001     0.000102 

 

Timings for individual modules:

Sum of individual times         ...       29.123 sec (=   0.485 min)
GTO integral calculation        ...        0.878 sec (=   0.015 min)   3.0 %
SCF iterations                  ...       28.244 sec (=   0.471 min)  97.0 %
                             ****ORCA TERMINATED NORMALLY****
TOTAL RUN TIME: 0 days 0 hours 0 minutes 29 seconds 701 msec
