
                                 *****************
                                 * O   R   C   A *
                                 *****************

           --- An Ab Initio, DFT and Semiempirical electronic structure package ---

                  #######################################################
                  #                        -***-                        #
                  #          Department of theory and spectroscopy      #
                  #               Directorship: Frank Neese             #
                  #        Max Planck Institute fuer Kohlenforschung    #
                  #                Kaiser Wilhelm Platz 1               #
                  #                 D-45470 Muelheim/Ruhr               #
                  #                      Germany                        #
                  #                                                     #
                  #                  All rights reserved                #
                  #                        -***-                        #
                  #######################################################


                         Program Version 4.2.0 -  RELEASE  -


 With contributions from (in alphabetic order):
   Daniel Aravena         : Magnetic Suceptibility
   Michael Atanasov       : Ab Initio Ligand Field Theory (pilot matlab implementation)
   Alexander A. Auer      : GIAO ZORA, VPT2
   Ute Becker             : Parallelization
   Giovanni Bistoni       : ED, misc. LED, open-shell LED, HFLED
   Martin Brehm           : Molecular dynamics
   Dmytro Bykov           : SCF Hessian
   Vijay G. Chilkuri      : MRCI spin determinant printing, contributions to CSF-ICE
   Dipayan Datta          : RHF DLPNO-CCSD density
   Achintya Kumar Dutta   : EOM-CC, STEOM-CC
   Dmitry Ganyushin       : Spin-Orbit,Spin-Spin,Magnetic field MRCI
   Miquel Garcia          : C-PCM Hessian, Gaussian charge scheme
   Yang Guo               : DLPNO-NEVPT2, CIM, IAO-localization
   Andreas Hansen         : Spin unrestricted coupled pair/coupled cluster methods
   Benjamin Helmich-Paris : CASSCF linear response (MC-RPA)
   Lee Huntington         : MR-EOM, pCC
   Robert Izsak           : Overlap fitted RIJCOSX, COSX-SCS-MP3, EOM
   Christian Kollmar      : KDIIS, OOCD, Brueckner-CCSD(T), CCSD density
   Simone Kossmann        : Meta GGA functionals, TD-DFT gradient, OOMP2, MP2 Hessian
   Martin Krupicka        : AUTO-CI
   Lucas Lang             : DCDCAS
   Dagmar Lenk            : GEPOL surface, SMD
   Dimitrios Liakos       : Extrapolation schemes; Compound Job, initial MDCI parallelization
   Dimitrios Manganas     : Further ROCIS development; embedding schemes
   Dimitrios Pantazis     : SARC Basis sets
   Taras Petrenko         : DFT Hessian,TD-DFT gradient, ASA, ECA, R-Raman, ABS, FL, XAS/XES, NRVS
   Peter Pinski           : DLPNO-MP2, DLPNO-MP2 Gradient
   Christoph Reimann      : Effective Core Potentials
   Marius Retegan         : Local ZFS, SOC
   Christoph Riplinger    : Optimizer, TS searches, QM/MM, DLPNO-CCSD(T), (RO)-DLPNO pert. Triples
   Tobias Risthaus        : Range-separated hybrids, TD-DFT gradient, RPA, STAB
   Michael Roemelt        : Original ROCIS implementation
   Masaaki Saitow         : Open-shell DLPNO-CCSD energy and density
   Barbara Sandhoefer     : DKH picture change effects
   Avijit Sen             : IP-ROCIS
   Kantharuban Sivalingam : CASSCF convergence, NEVPT2, FIC-MRCI
   Bernardo de Souza      : ESD, SOC TD-DFT
   Georgi Stoychev        : AutoAux, RI-MP2 NMR
   Willem Van den Heuvel  : Paramagnetic NMR
   Boris Wezisla          : Elementary symmetry handling
   Frank Wennmohs         : Technical directorship


 We gratefully acknowledge several colleagues who have allowed us to
 interface, adapt or use parts of their codes:
   Stefan Grimme, W. Hujo, H. Kruse,             : VdW corrections, initial TS optimization,
                  C. Bannwarth                     DFT functionals, gCP, sTDA/sTD-DF
   Ed Valeev, F. Pavosevic, A. Kumar             : LibInt (2-el integral package), F12 methods
   Garnet Chan, S. Sharma, J. Yang, R. Olivares  : DMRG
   Ulf Ekstrom                                   : XCFun DFT Library
   Mihaly Kallay                                 : mrcc  (arbitrary order and MRCC methods)
   Andreas Klamt, Michael Diedenhofen            : otool_cosmo (COSMO solvation model)
   Jiri Pittner, Ondrej Demel                    : Mk-CCSD
   Frank Weinhold                                : gennbo (NPA and NBO analysis)
   Christopher J. Cramer and Donald G. Truhlar   : smd solvation model
   Lars Goerigk                                  : TD-DFT with DH, B97 family of functionals
   V. Asgeirsson, H. Jonsson                     : NEB implementation
   FAccTs GmbH                                   : IRC, NEB, NEB-TS, Multilevel, MM, QM/MM, CI optimization
   S Lehtola, MJT Oliveira, MAL Marques          : LibXC Library


 Your calculation uses the libint2 library for the computation of 2-el integrals
 For citations please refer to: http://libint.valeyev.net

 Your ORCA version has been built with support for libXC version: 4.2.3
 For citations please refer to: https://tddft.org/programs/libxc/

 This ORCA versions uses:
   CBLAS   interface :  Fast vector & matrix operations
   LAPACKE interface :  Fast linear algebra routines
   SCALAPACK package :  Parallel linear algebra routines


Your calculation utilizes the DFT-NL dispersion correction.
Cite in your paper:
Vydrov, O. A.; Van Voorhis, T. J. Chem. Phys. 2010, 133, 244103
Hujo, W.; Grimme, S. J. Chem. Theory Comput. 2011, 7, 3866 
   

----- Orbital basis set information -----
Your calculation utilizes the basis: def2-TZVPPD
   F. Weigend and R. Ahlrichs, Phys. Chem. Chem. Phys. 7, 3297 (2005).
   D. Rappoport and F. Furche, J. Chem. Phys. 133 134105 (2010).

----- AuxJK basis set information -----
Your calculation utilizes the auxiliary basis: def2/JK
   H-Ba, Hf-Rn: F. Weigend, J. Comput. Chem. 29, 167 (2008).

================================================================================
                                        WARNINGS
                       Please study these warnings very carefully!
================================================================================


INFO   : the flag for use of LIBINT has been found!

================================================================================
                                       INPUT FILE
================================================================================
NAME = MOR07_ed01.in
|  1> #
|  2> # MOR07_ed01 wB97M-V/Def2-TZVPPD
|  3> #
|  4> ! wb97m-v def2-tzvppd def2/jk grid4 nofinalgrid
|  5> 
|  6> *xyz 0 1
|  7> Cr      -0.000046    0.000041   -0.405569 
|  8> O       -2.277907    2.043130   -0.317819 
|  9> C       -1.422280    1.275470   -0.391359 
| 10> C       -0.000325   -0.000192    1.429559 
| 11> O       -0.000571   -0.000422    2.587655 
| 12> C        1.422359   -1.275089   -0.391211 
| 13> O        2.278285   -2.042429   -0.317709 
| 14> C        1.275390    1.422211   -0.390822 
| 15> O        2.043071    2.277781   -0.316760 
| 16> C       -1.275267   -1.422351   -0.391135 
| 17> O       -2.042647   -2.278220   -0.317434 
| 18> *
| 19> 
| 20> %maxcore 5000
| 21> 
| 22> %pal
| 23> nprocs = 24
| 24> end
| 25> 
| 26> 
| 27>                          ****END OF INPUT****
================================================================================

                       ****************************
                       * Single Point Calculation *
                       ****************************

---------------------------------
CARTESIAN COORDINATES (ANGSTROEM)
---------------------------------
  Cr    -0.000046    0.000041   -0.405569
  O     -2.277907    2.043130   -0.317819
  C     -1.422280    1.275470   -0.391359
  C     -0.000325   -0.000192    1.429559
  O     -0.000571   -0.000422    2.587655
  C      1.422359   -1.275089   -0.391211
  O      2.278285   -2.042429   -0.317709
  C      1.275390    1.422211   -0.390822
  O      2.043071    2.277781   -0.316760
  C     -1.275267   -1.422351   -0.391135
  O     -2.042647   -2.278220   -0.317434

----------------------------
CARTESIAN COORDINATES (A.U.)
----------------------------
  NO LB      ZA    FRAG     MASS         X           Y           Z
   0 Cr   24.0000    0    52.000   -0.000087    0.000077   -0.766414
   1 O     8.0000    0    15.999   -4.304620    3.860956   -0.600591
   2 C     6.0000    0    12.011   -2.687720    2.410289   -0.739561
   3 C     6.0000    0    12.011   -0.000614   -0.000363    2.701475
   4 O     8.0000    0    15.999   -0.001079   -0.000797    4.889959
   5 C     6.0000    0    12.011    2.687869   -2.409569   -0.739282
   6 O     8.0000    0    15.999    4.305335   -3.859631   -0.600383
   7 C     6.0000    0    12.011    2.410138    2.687589   -0.738547
   8 O     8.0000    0    15.999    3.860845    4.304382   -0.598590
   9 C     6.0000    0    12.011   -2.409905   -2.687854   -0.739138
  10 O     8.0000    0    15.999   -3.860043   -4.305212   -0.599863

--------------------------------
INTERNAL COORDINATES (ANGSTROEM)
--------------------------------
 Cr     0   0   0     0.000000000000     0.00000000     0.00000000
 O      1   0   0     3.061137608756     0.00000000     0.00000000
 C      2   1   0     1.151871334103     2.01783897     0.00000000
 C      1   2   3     1.835128036000    88.35571758   180.24238282
 O      4   1   2     1.158096048967   179.99463193    91.76122125
 C      1   2   3     1.910339931292   177.92665485   179.81632214
 O      6   1   4     1.151877830796   176.77207242     0.00000000
 C      1   2   3     1.910372207975    89.98385338    90.67316090
 O      8   1   2     1.151876435433   176.75578430    88.60960898
 C      1   2   3     1.910391567418    90.00030062   269.79805641
 O     10   1   2     1.151874839973   176.76441128   271.68563110

---------------------------
INTERNAL COORDINATES (A.U.)
---------------------------
 Cr     0   0   0     0.000000000000     0.00000000     0.00000000
 O      1   0   0     5.784711738796     0.00000000     0.00000000
 C      2   1   0     2.176721362970     2.01783897     0.00000000
 C      1   2   3     3.467889408721    88.35571758   180.24238282
 O      4   1   2     2.188484369323   179.99463193    91.76122125
 C      1   2   3     3.610019292836   177.92665485   179.81632214
 O      6   1   4     2.176733639940   176.77207242     0.00000000
 C      1   2   3     3.610080286928    89.98385338    90.67316090
 O      8   1   2     2.176731003085   176.75578430    88.60960898
 C      1   2   3     3.610116870972    90.00030062   269.79805641
 O     10   1   2     2.176727988103   176.76441128   271.68563110

---------------------
BASIS SET INFORMATION
---------------------
There are 3 groups of distinct atoms

 Group   1 Type Cr  : 17s13p7d2f1g contracted to 6s6p4d2f1g pattern {842111/631111/4111/11/1}
 Group   2 Type O   : 12s7p3d1f contracted to 6s4p3d1f pattern {621111/4111/111/1}
 Group   3 Type C   : 12s6p3d1f contracted to 6s3p3d1f pattern {621111/411/111/1}

Atom   0Cr   basis set group =>   1
Atom   1O    basis set group =>   2
Atom   2C    basis set group =>   3
Atom   3C    basis set group =>   3
Atom   4O    basis set group =>   2
Atom   5C    basis set group =>   3
Atom   6O    basis set group =>   2
Atom   7C    basis set group =>   3
Atom   8O    basis set group =>   2
Atom   9C    basis set group =>   3
Atom  10O    basis set group =>   2
----------------------------------
AUXILIARY/JK BASIS SET INFORMATION
----------------------------------
There are 3 groups of distinct atoms

 Group   1 Type Cr  : 19s14p12d10f7g3h1i contracted to 16s13p11d9f5g3h1i pattern {4111111111111111/2111111111111/21111111111/211111111/31111/111/1}
 Group   2 Type O   : 14s10p6d2f1g contracted to 10s8p4d2f1g pattern {5111111111/31111111/3111/11/1}
 Group   3 Type C   : 14s10p6d2f1g contracted to 10s8p5d1f1g pattern {5111111111/31111111/21111/2/1}

Atom   0Cr   basis set group =>   1
Atom   1O    basis set group =>   2
Atom   2C    basis set group =>   3
Atom   3C    basis set group =>   3
Atom   4O    basis set group =>   2
Atom   5C    basis set group =>   3
Atom   6O    basis set group =>   2
Atom   7C    basis set group =>   3
Atom   8O    basis set group =>   2
Atom   9C    basis set group =>   3
Atom  10O    basis set group =>   2


           ************************************************************
           *        Program running with 24 parallel MPI-processes    *
           *              working on a common directory               *
           ************************************************************
------------------------------------------------------------------------------
                           ORCA GTO INTEGRAL CALCULATION
------------------------------------------------------------------------------

                         BASIS SET STATISTICS AND STARTUP INFO

 # of primitive gaussian shells          ...  265
 # of primitive gaussian functions       ...  649
 # of contracted shells                  ...  154
 # of contracted basis functions         ...  452
 Highest angular momentum                ...    4
 Maximum contraction depth               ...    8
 Integral package used                   ... LIBINT
 Integral threshhold            Thresh   ...  1.000e-10
 Primitive cut-off              TCut     ...  1.000e-11


------------------------------ INTEGRAL EVALUATION ----------------------------


 * One electron integrals 
 Pre-screening matrix                    ... done
 Shell pair data                         ... done (   0.003 sec)



           ************************************************************
           *        Program running with 24 parallel MPI-processes    *
           *              working on a common directory               *
           ************************************************************
-------------------------------------------------------------------------------
                                 ORCA SCF
-------------------------------------------------------------------------------

------------
SCF SETTINGS
------------
Hamiltonian:
 Density Functional     Method          .... DFT(GTOs)
 Exchange Functional    Exchange        .... WB97M-V
 Correlation Functional Correlation     .... WB97M-V
 Gradients option       PostSCFGGA      .... off
 Hybrid DFT is turned on
   Fraction HF Exchange ScalHFX         ....  0.150000
   Scaling of DF-GGA-X  ScalDFX         ....  0.000000
   Scaling of DF-GGA-C  ScalDFC         ....  1.000000
   Scaling of DF-LDA-C  ScalLDAC        ....  1.000000
   Perturbative correction              ....  0.000000
   Density functional embedding theory  .... OFF
 Long-range corrected/Screened/Range-Separated Hybrid DFT is turned on
   Amount of maximum screened exact exchange              ....  0.850000
   Range separation parameter mu (erf(mu*r12)/r12)        ....  0.300000
   NL short-range parameter             ....  6.000000
   NL long-range parameter              ....  0.010000


General Settings:
 Integral files         IntName         .... MOR07_ed01
 Hartree-Fock type      HFTyp           .... RHF
 Total Charge           Charge          ....    0
 Multiplicity           Mult            ....    1
 Number of Electrons    NEL             ....   94
 Basis Dimension        Dim             ....  452
 Nuclear Repulsion      ENuc            ....    753.7684398673 Eh

Convergence Acceleration:
 DIIS                   CNVDIIS         .... on
   Start iteration      DIISMaxIt       ....    12
   Startup error        DIISStart       ....  0.200000
   # of expansion vecs  DIISMaxEq       ....     5
   Bias factor          DIISBfac        ....   1.050
   Max. coefficient     DIISMaxC        ....  10.000
 Newton-Raphson         CNVNR           .... off
 SOSCF                  CNVSOSCF        .... off
 Level Shifting         CNVShift        .... on
   Level shift para.    LevelShift      ....    0.2500
   Turn off err/grad.   ShiftErr        ....    0.0010
 Zerner damping         CNVZerner       .... off
 Static damping         CNVDamp         .... on
   Fraction old density DampFac         ....    0.7000
   Max. Damping (<1)    DampMax         ....    0.9800
   Min. Damping (>=0)   DampMin         ....    0.0000
   Turn off err/grad.   DampErr         ....    0.1000
 Fernandez-Rico         CNVRico         .... off

SCF Procedure:
 Maximum # iterations   MaxIter         ....   125
 SCF integral mode      SCFMode         .... Direct
   Integral package                     .... LIBINT
 Reset frequency        DirectResetFreq ....    20
 Integral Threshold     Thresh          ....  1.000e-10 Eh
 Primitive CutOff       TCut            ....  1.000e-11 Eh

Convergence Tolerance:
 Convergence Check Mode ConvCheckMode   .... Total+1el-Energy
 Convergence forced     ConvForced      .... 0
 Energy Change          TolE            ....  1.000e-06 Eh
 1-El. energy change                    ....  1.000e-03 Eh
 DIIS Error             TolErr          ....  1.000e-06


Diagonalization of the overlap matrix:
Smallest eigenvalue                        ... 1.041e-05
Time for diagonalization                   ...    0.027 sec
Threshold for overlap eigenvalues          ... 1.000e-08
Number of eigenvalues below threshold      ... 0
Time for construction of square roots      ...    0.025 sec
Total time needed                          ...    0.053 sec

-------------------
DFT GRID GENERATION
-------------------

General Integration Accuracy     IntAcc      ...  4.670
Radial Grid Type                 RadialGrid  ... Gauss-Chebyshev
Angular Grid (max. acc.)         AngularGrid ... Lebedev-302
Angular grid pruning method      GridPruning ... 3 (G Style)
Weight generation scheme         WeightScheme... Becke
Basis function cutoff            BFCut       ...    1.0000e-10
Integration weight cutoff        WCut        ...    1.0000e-14
Grids for H and He will be reduced by one unit

# of grid points (after initial pruning)     ...  71784 (   0.0 sec)
# of grid points (after weights+screening)   ...  67810 (   0.0 sec)
nearest neighbour list constructed           ...    0.0 sec
Grid point re-assignment to atoms done       ...    0.0 sec
Grid point division into batches done        ...    0.3 sec
Reduced shell lists constructed in    0.4 sec

Total number of grid points                  ...    67810
Total number of batches                      ...     1063
Average number of points per batch           ...       63
Average number of grid points per atom       ...     6165
Average number of shells per batch           ...   110.87 (71.99%)
Average number of basis functions per batch  ...   340.48 (75.33%)
Average number of large shells per batch     ...    94.52 (85.25%)
Average number of large basis fcns per batch ...   288.09 (84.61%)
Maximum spatial batch extension              ...   4.97,  3.91, 18.21 au
Average spatial batch extension              ...   0.07,  0.07,  0.08 au

Time for grid setup =    0.405 sec

------------------------------
INITIAL GUESS: MODEL POTENTIAL
------------------------------
Loading Hartree-Fock densities                     ... done
Calculating cut-offs                               ... done
Setting up the integral package                    ... done
Initializing the effective Hamiltonian             ... done
Starting the Coulomb interaction                   ... done (   0.0 sec)
Reading the grid                                   ... done
Mapping shells                                     ... done
Starting the XC term evaluation                    ... done (   0.1 sec)
  promolecular density results
     # of electrons  =     93.999955849
     EX              =   -113.433179417
     EC              =     -3.367723000
     EX+EC           =   -116.800902417
Transforming the Hamiltonian                       ... done (   0.0 sec)
Diagonalizing the Hamiltonian                      ... done (   0.0 sec)
Back transforming the eigenvectors                 ... done (   0.0 sec)
Now organizing SCF variables                       ... done
                      ------------------
                      INITIAL GUESS DONE (   0.7 sec)
                      ------------------
--------------
SCF ITERATIONS
--------------
ITER       Energy         Delta-E        Max-DP      RMS-DP      [F,P]     Damp
               ***  Starting incremental Fock matrix formation  ***
  0  -1611.4136756544   0.000000000000 0.19333601  0.00080911  0.1812199 0.7000
  1  -1611.4860273976  -0.072351743157 0.15485863  0.00063965  0.0954197 0.7000
                               ***Turning on DIIS***
  2  -1611.5202687027  -0.034241305136 0.33946333  0.00143501  0.0415662 0.0000
  3  -1611.5879236374  -0.067654934682 0.02644293  0.00026837  0.0399638 0.0000
  4  -1611.5938648562  -0.005941218793 0.01029945  0.00010780  0.0137017 0.0000
  5  -1611.5955008563  -0.001636000159 0.02909554  0.00010021  0.0162126 0.0000
  6  -1611.5959126822  -0.000411825804 0.00817683  0.00005223  0.0108409 0.0000
  7  -1611.5961896313  -0.000276949163 0.00682287  0.00003490  0.0051712 0.0000
  8  -1611.5962953666  -0.000105735322 0.00205647  0.00001705  0.0016922 0.0000
  9  -1611.5963205735  -0.000025206856 0.00126484  0.00001120  0.0008449 0.0000
 10  -1611.5963255431  -0.000004969584 0.00028675  0.00000359  0.0006020 0.0000
 11  -1611.5963270480  -0.000001504907 0.00044883  0.00000323  0.0002030 0.0000
 12  -1611.5963272855  -0.000000237475 0.00117027  0.00000721  0.0000950 0.0000
 13  -1611.5963273501  -0.000000064633 0.00060959  0.00000425  0.0000604 0.0000
 14  -1611.5963273665  -0.000000016361 0.00043275  0.00000320  0.0000500 0.0000
 15  -1611.5963273518   0.000000014629 0.00019040  0.00000291  0.0000503 0.0000
                 **** Energy Check signals convergence ****

               *****************************************************
               *                     SUCCESS                       *
               *           SCF CONVERGED AFTER  16 CYCLES          *
               *****************************************************


Setting up the DFT-NL grid :

General Integration Accuracy     IntAcc      ...  4.340
Radial Grid Type                 RadialGrid  ... Gauss-Chebyshev
Angular Grid (max. acc.)         AngularGrid ... Lebedev-110
Angular grid pruning method      GridPruning ... 3 (G Style)
Weight generation scheme         WeightScheme... Becke
Basis function cutoff            BFCut       ...    1.0000e-10
Integration weight cutoff        WCut        ...    1.0000e-14
Grids for H and He will be reduced by one unit

# of grid points (after initial pruning)     ...  19832 (   0.0 sec)
# of grid points (after weights+screening)   ...  18865 (   0.0 sec)
nearest neighbour list constructed           ...    0.0 sec
Grid point re-assignment to atoms done       ...    0.0 sec
Grid point division into batches done        ...    0.0 sec
Reduced shell lists constructed in    0.0 sec

Total number of grid points                  ...    18865
Total number of batches                      ...      301
Average number of points per batch           ...       62
Average number of grid points per atom       ...     1715
Average number of shells per batch           ...   109.57 (71.15%)
Average number of basis functions per batch  ...   336.86 (74.53%)
Average number of large shells per batch     ...    93.86 (85.66%)
Average number of large basis fcns per batch ...   284.86 (84.56%)
Maximum spatial batch extension              ...   3.66,  3.42, 21.72 au
Average spatial batch extension              ...   0.10,  0.10,  0.15 au

Final grid set up in    0.0 sec

-------------------------------------------------------------------------------
                         DFT-NL dispersion correction                          
-------------------------------------------------------------------------------

SC Energy -1611.596327363 
NL    Energy 0.373893869 
SC+NL Energy -1611.222433495 
NL done in    0.1 sec
-------------------------------------------------------------------------------

----------------
TOTAL SCF ENERGY
----------------

Total Energy       :        -1611.22243349 Eh          -43843.59138 eV

Components:
Nuclear Repulsion  :          753.76843987 Eh           20511.08201 eV
Electronic Energy  :        -2364.99087336 Eh          -64354.67339 eV
One Electron Energy:        -3709.50527574 Eh         -100940.77028 eV
Two Electron Energy:         1344.51440238 Eh           36586.09689 eV

Virial components:
Potential Energy   :        -3219.24686069 Eh          -87600.16059 eV
Kinetic Energy     :         1608.02442720 Eh           43756.56921 eV
Virial Ratio       :            2.00198878


DFT components:
N(Alpha)           :       46.999972315772 electrons
N(Beta)            :       46.999972315772 electrons
N(Total)           :       93.999944631543 electrons
E(X)               :      -85.020416709997 Eh       
E(C)               :       -3.718105031416 Eh       
NL Energy, E(C,NL) :        0.373893868607 Eh       
E(XC)              :      -88.364627872806 Eh       
DFET-embed. en.    :        0.000000000000 Eh       

---------------
SCF CONVERGENCE
---------------

  Last Energy change         ...   -1.1662e-08  Tolerance :   1.0000e-06
  Last MAX-Density change    ...    2.4361e-04  Tolerance :   1.0000e-05
  Last RMS-Density change    ...    2.7950e-06  Tolerance :   1.0000e-06
  Last DIIS Error            ...    1.4299e-05  Tolerance :   1.0000e-06

             **** THE GBW FILE WAS UPDATED (MOR07_ed01.gbw) ****
             **** DENSITY FILE WAS UPDATED (MOR07_ed01.scfp) ****
             **** ENERGY FILE WAS UPDATED (MOR07_ed01.en.tmp) ****
             **** THE GBW FILE WAS UPDATED (MOR07_ed01.gbw) ****
             **** DENSITY FILE WAS UPDATED (MOR07_ed01.scfp) ****
----------------
ORBITAL ENERGIES
----------------

  NO   OCC          E(Eh)            E(eV) 
   0   2.0000    -216.220884     -5883.6694 
   1   2.0000     -24.965886      -679.3563 
   2   2.0000     -21.174997      -576.2010 
   3   2.0000     -21.174997      -576.2010 
   4   2.0000     -21.174054      -576.1753 
   5   2.0000     -19.433836      -528.8216 
   6   2.0000     -19.433824      -528.8212 
   7   2.0000     -19.433822      -528.8212 
   8   2.0000     -19.433819      -528.8211 
   9   2.0000     -19.406168      -528.0687 
  10   2.0000     -10.485383      -285.3218 
  11   2.0000     -10.485376      -285.3216 
  12   2.0000     -10.485373      -285.3215 
  13   2.0000     -10.485372      -285.3215 
  14   2.0000     -10.466653      -284.8121 
  15   2.0000      -3.030294       -82.4585 
  16   2.0000      -1.958994       -53.3069 
  17   2.0000      -1.958992       -53.3069 
  18   2.0000      -1.958139       -53.2837 
  19   2.0000      -1.282954       -34.9110 
  20   2.0000      -1.282341       -34.8943 
  21   2.0000      -1.282335       -34.8941 
  22   2.0000      -1.281891       -34.8820 
  23   2.0000      -1.255940       -34.1759 
  24   2.0000      -0.735880       -20.0243 
  25   2.0000      -0.699379       -19.0311 
  26   2.0000      -0.699374       -19.0309 
  27   2.0000      -0.694961       -18.9108 
  28   2.0000      -0.680627       -18.5208 
  29   2.0000      -0.618085       -16.8190 
  30   2.0000      -0.603203       -16.4140 
  31   2.0000      -0.596699       -16.2370 
  32   2.0000      -0.596696       -16.2369 
  33   2.0000      -0.591066       -16.0837 
  34   2.0000      -0.588941       -16.0259 
  35   2.0000      -0.588938       -16.0258 
  36   2.0000      -0.579761       -15.7761 
  37   2.0000      -0.572622       -15.5818 
  38   2.0000      -0.561734       -15.2856 
  39   2.0000      -0.561732       -15.2855 
  40   2.0000      -0.557998       -15.1839 
  41   2.0000      -0.532899       -14.5009 
  42   2.0000      -0.525500       -14.2996 
  43   2.0000      -0.525491       -14.2993 
  44   2.0000      -0.338737        -9.2175 
  45   2.0000      -0.336411        -9.1542 
  46   2.0000      -0.336408        -9.1541 
  47   0.0000      -0.052541        -1.4297 
  48   0.0000       0.019529         0.5314 
  49   0.0000       0.026710         0.7268 
  50   0.0000       0.026712         0.7269 
  51   0.0000       0.030022         0.8169 
  52   0.0000       0.034379         0.9355 
  53   0.0000       0.034388         0.9357 
  54   0.0000       0.047363         1.2888 
  55   0.0000       0.059758         1.6261 
  56   0.0000       0.062620         1.7040 
  57   0.0000       0.069151         1.8817 
  58   0.0000       0.072208         1.9649 
  59   0.0000       0.072210         1.9649 
  60   0.0000       0.082179         2.2362 
  61   0.0000       0.082190         2.2365 
  62   0.0000       0.084104         2.2886 
  63   0.0000       0.090049         2.4504 
  64   0.0000       0.090067         2.4508 
  65   0.0000       0.095319         2.5937 
  66   0.0000       0.095343         2.5944 
  67   0.0000       0.097391         2.6501 
  68   0.0000       0.107818         2.9339 
  69   0.0000       0.108126         2.9422 
  70   0.0000       0.110761         3.0140 
  71   0.0000       0.116922         3.1816 
  72   0.0000       0.116928         3.1818 
  73   0.0000       0.122560         3.3350 
  74   0.0000       0.127098         3.4585 
  75   0.0000       0.142664         3.8821 
  76   0.0000       0.143825         3.9137 
  77   0.0000       0.143864         3.9147 
  78   0.0000       0.154329         4.1995 
  79   0.0000       0.167142         4.5482 
  80   0.0000       0.168012         4.5718 
  81   0.0000       0.168027         4.5722 
  82   0.0000       0.168122         4.5748 
  83   0.0000       0.183701         4.9988 
  84   0.0000       0.193729         5.2716 
  85   0.0000       0.201351         5.4790 
  86   0.0000       0.201377         5.4798 
  87   0.0000       0.220241         5.9931 
  88   0.0000       0.238868         6.4999 
  89   0.0000       0.251801         6.8519 
  90   0.0000       0.270643         7.3646 
  91   0.0000       0.270672         7.3654 
  92   0.0000       0.283808         7.7228 
  93   0.0000       0.283829         7.7234 
  94   0.0000       0.284145         7.7320 
  95   0.0000       0.287263         7.8168 
  96   0.0000       0.293843         7.9959 
  97   0.0000       0.312927         8.5152 
  98   0.0000       0.313093         8.5197 
  99   0.0000       0.321251         8.7417 
 100   0.0000       0.321338         8.7440 
 101   0.0000       0.323769         8.8102 
 102   0.0000       0.331896         9.0314 
 103   0.0000       0.331937         9.0325 
 104   0.0000       0.336625         9.1600 
 105   0.0000       0.358155         9.7459 
 106   0.0000       0.358167         9.7462 
 107   0.0000       0.377027        10.2594 
 108   0.0000       0.379587        10.3291 
 109   0.0000       0.397371        10.8130 
 110   0.0000       0.397383        10.8133 
 111   0.0000       0.397402        10.8139 
 112   0.0000       0.403841        10.9891 
 113   0.0000       0.410056        11.1582 
 114   0.0000       0.415646        11.3103 
 115   0.0000       0.415658        11.3106 
 116   0.0000       0.419802        11.4234 
 117   0.0000       0.419824        11.4240 
 118   0.0000       0.424503        11.5513 
 119   0.0000       0.438769        11.9395 
 120   0.0000       0.463246        12.6056 
 121   0.0000       0.463497        12.6124 
 122   0.0000       0.512554        13.9473 
 123   0.0000       0.512561        13.9475 
 124   0.0000       0.513760        13.9801 
 125   0.0000       0.536420        14.5967 
 126   0.0000       0.551535        15.0080 
 127   0.0000       0.563056        15.3215 
 128   0.0000       0.564136        15.3509 
 129   0.0000       0.564181        15.3521 
 130   0.0000       0.568795        15.4777 
 131   0.0000       0.581970        15.8362 
 132   0.0000       0.581989        15.8367 
 133   0.0000       0.585771        15.9396 
 134   0.0000       0.585795        15.9403 
 135   0.0000       0.588025        16.0010 
 136   0.0000       0.598387        16.2829 
 137   0.0000       0.605684        16.4815 
 138   0.0000       0.605727        16.4827 
 139   0.0000       0.606713        16.5095 
 140   0.0000       0.610909        16.6237 
 141   0.0000       0.615176        16.7398 
 142   0.0000       0.615214        16.7408 
 143   0.0000       0.629091        17.1184 
 144   0.0000       0.629177        17.1208 
 145   0.0000       0.633001        17.2248 
 146   0.0000       0.650014        17.6878 
 147   0.0000       0.652394        17.7526 
 148   0.0000       0.665749        18.1160 
 149   0.0000       0.665802        18.1174 
 150   0.0000       0.670539        18.2463 
 151   0.0000       0.677663        18.4402 
 152   0.0000       0.697631        18.9835 
 153   0.0000       0.719450        19.5772 
 154   0.0000       0.721254        19.6263 
 155   0.0000       0.729007        19.8373 
 156   0.0000       0.729041        19.8382 
 157   0.0000       0.731533        19.9060 
 158   0.0000       0.739631        20.1264 
 159   0.0000       0.750909        20.4333 
 160   0.0000       0.750926        20.4337 
 161   0.0000       0.754641        20.5348 
 162   0.0000       0.778417        21.1818 
 163   0.0000       0.778427        21.1821 
 164   0.0000       0.786893        21.4124 
 165   0.0000       0.791726        21.5440 
 166   0.0000       0.799129        21.7454 
 167   0.0000       0.803767        21.8716 
 168   0.0000       0.804710        21.8973 
 169   0.0000       0.804775        21.8991 
 170   0.0000       0.805838        21.9280 
 171   0.0000       0.838163        22.8076 
 172   0.0000       0.851717        23.1764 
 173   0.0000       0.855752        23.2862 
 174   0.0000       0.855774        23.2868 
 175   0.0000       0.884356        24.0646 
 176   0.0000       0.892928        24.2978 
 177   0.0000       0.904066        24.6009 
 178   0.0000       0.904086        24.6014 
 179   0.0000       0.922593        25.1050 
 180   0.0000       0.943691        25.6791 
 181   0.0000       0.943706        25.6795 
 182   0.0000       0.952831        25.9279 
 183   0.0000       0.952979        25.9319 
 184   0.0000       0.955702        26.0060 
 185   0.0000       0.968466        26.3533 
 186   0.0000       0.968480        26.3537 
 187   0.0000       0.971300        26.4304 
 188   0.0000       0.983196        26.7541 
 189   0.0000       0.990079        26.9414 
 190   0.0000       0.990103        26.9421 
 191   0.0000       0.997569        27.1452 
 192   0.0000       1.033403        28.1203 
 193   0.0000       1.041103        28.3299 
 194   0.0000       1.042748        28.3746 
 195   0.0000       1.042757        28.3749 
 196   0.0000       1.048536        28.5321 
 197   0.0000       1.048543        28.5323 
 198   0.0000       1.075676        29.2706 
 199   0.0000       1.094134        29.7729 
 200   0.0000       1.094249        29.7760 
 201   0.0000       1.094263        29.7764 
 202   0.0000       1.115675        30.3591 
 203   0.0000       1.178777        32.0762 
 204   0.0000       1.186426        32.2843 
 205   0.0000       1.186443        32.2847 
 206   0.0000       1.244836        33.8737 
 207   0.0000       1.268776        34.5251 
 208   0.0000       1.299774        35.3687 
 209   0.0000       1.322928        35.9987 
 210   0.0000       1.331580        36.2341 
 211   0.0000       1.331615        36.2351 
 212   0.0000       1.345564        36.6147 
 213   0.0000       1.345620        36.6162 
 214   0.0000       1.362896        37.0863 
 215   0.0000       1.404861        38.2282 
 216   0.0000       1.409182        38.3458 
 217   0.0000       1.456083        39.6220 
 218   0.0000       1.458064        39.6759 
 219   0.0000       1.458082        39.6764 
 220   0.0000       1.636943        44.5435 
 221   0.0000       1.655996        45.0619 
 222   0.0000       1.666471        45.3470 
 223   0.0000       1.666507        45.3480 
 224   0.0000       1.702412        46.3250 
 225   0.0000       1.741687        47.3937 
 226   0.0000       1.764234        48.0073 
 227   0.0000       1.764252        48.0077 
 228   0.0000       1.786712        48.6189 
 229   0.0000       1.793018        48.7905 
 230   0.0000       1.793047        48.7913 
 231   0.0000       1.825329        49.6697 
 232   0.0000       1.825344        49.6701 
 233   0.0000       1.827596        49.7314 
 234   0.0000       1.840134        50.0726 
 235   0.0000       1.841371        50.1063 
 236   0.0000       1.855406        50.4882 
 237   0.0000       1.855460        50.4896 
 238   0.0000       1.874441        51.0061 
 239   0.0000       1.875798        51.0431 
 240   0.0000       1.888842        51.3980 
 241   0.0000       1.888874        51.3989 
 242   0.0000       1.910486        51.9870 
 243   0.0000       1.921718        52.2926 
 244   0.0000       1.939056        52.7644 
 245   0.0000       1.957088        53.2551 
 246   0.0000       1.964887        53.4673 
 247   0.0000       1.964915        53.4680 
 248   0.0000       1.977157        53.8012 
 249   0.0000       1.983226        53.9663 
 250   0.0000       1.999351        54.4051 
 251   0.0000       2.057198        55.9792 
 252   0.0000       2.057211        55.9796 
 253   0.0000       2.063040        56.1382 
 254   0.0000       2.088993        56.8444 
 255   0.0000       2.118822        57.6561 
 256   0.0000       2.118941        57.6593 
 257   0.0000       2.182092        59.3777 
 258   0.0000       2.205313        60.0096 
 259   0.0000       2.215597        60.2895 
 260   0.0000       2.215624        60.2902 
 261   0.0000       2.249388        61.2090 
 262   0.0000       2.272057        61.8258 
 263   0.0000       2.364088        64.3301 
 264   0.0000       2.364170        64.3323 
 265   0.0000       2.365969        64.3813 
 266   0.0000       2.418805        65.8190 
 267   0.0000       2.418842        65.8200 
 268   0.0000       2.418872        65.8209 
 269   0.0000       2.426485        66.0280 
 270   0.0000       2.426505        66.0286 
 271   0.0000       2.429749        66.1168 
 272   0.0000       2.441768        66.4439 
 273   0.0000       2.459568        66.9282 
 274   0.0000       2.473333        67.3028 
 275   0.0000       2.473390        67.3044 
 276   0.0000       2.489122        67.7325 
 277   0.0000       2.489184        67.7342 
 278   0.0000       2.544374        69.2359 
 279   0.0000       2.549006        69.3620 
 280   0.0000       2.736707        74.4696 
 281   0.0000       2.739022        74.5326 
 282   0.0000       2.739054        74.5334 
 283   0.0000       2.748363        74.7868 
 284   0.0000       2.749567        74.8195 
 285   0.0000       2.749613        74.8208 
 286   0.0000       2.750740        74.8514 
 287   0.0000       2.765744        75.2597 
 288   0.0000       2.834041        77.1182 
 289   0.0000       2.834071        77.1190 
 290   0.0000       2.872404        78.1621 
 291   0.0000       2.872407        78.1622 
 292   0.0000       2.889950        78.6395 
 293   0.0000       2.901123        78.9436 
 294   0.0000       2.925372        79.6034 
 295   0.0000       2.943311        80.0916 
 296   0.0000       2.971978        80.8716 
 297   0.0000       2.971996        80.8721 
 298   0.0000       2.978573        81.0511 
 299   0.0000       2.995213        81.5039 
 300   0.0000       2.995259        81.5051 
 301   0.0000       2.998774        81.6008 
 302   0.0000       3.029725        82.4430 
 303   0.0000       3.067998        83.4845 
 304   0.0000       3.078792        83.7782 
 305   0.0000       3.095211        84.2250 
 306   0.0000       3.095217        84.2251 
 307   0.0000       3.117158        84.8222 
 308   0.0000       3.119557        84.8875 
 309   0.0000       3.119570        84.8878 
 310   0.0000       3.161061        86.0169 
 311   0.0000       3.163314        86.0781 
 312   0.0000       3.163335        86.0787 
 313   0.0000       3.168210        86.2114 
 314   0.0000       3.176206        86.4290 
 315   0.0000       3.195750        86.9608 
 316   0.0000       3.225606        87.7732 
 317   0.0000       3.225726        87.7765 
 318   0.0000       3.240945        88.1906 
 319   0.0000       3.285404        89.4004 
 320   0.0000       3.285416        89.4007 
 321   0.0000       3.293317        89.6157 
 322   0.0000       3.321955        90.3950 
 323   0.0000       3.322023        90.3969 
 324   0.0000       3.326089        90.5075 
 325   0.0000       3.349441        91.1429 
 326   0.0000       3.349454        91.1433 
 327   0.0000       3.357316        91.3572 
 328   0.0000       3.413397        92.8833 
 329   0.0000       3.433032        93.4175 
 330   0.0000       3.453186        93.9660 
 331   0.0000       3.481734        94.7428 
 332   0.0000       3.481812        94.7449 
 333   0.0000       3.490200        94.9732 
 334   0.0000       3.512459        95.5789 
 335   0.0000       3.512562        95.5817 
 336   0.0000       3.541148        96.3595 
 337   0.0000       3.549412        96.5844 
 338   0.0000       3.549449        96.5854 
 339   0.0000       3.580066        97.4185 
 340   0.0000       3.586549        97.5950 
 341   0.0000       3.631866        98.8281 
 342   0.0000       3.641208        99.0823 
 343   0.0000       3.660890        99.6179 
 344   0.0000       3.661521        99.6350 
 345   0.0000       3.661544        99.6357 
 346   0.0000       3.725032       101.3633 
 347   0.0000       3.725054       101.3639 
 348   0.0000       3.736052       101.6632 
 349   0.0000       3.933829       107.0449 
 350   0.0000       3.941246       107.2468 
 351   0.0000       3.941262       107.2472 
 352   0.0000       3.955978       107.6476 
 353   0.0000       3.990043       108.5746 
 354   0.0000       4.017299       109.3163 
 355   0.0000       4.017352       109.3177 
 356   0.0000       4.450962       121.1168 
 357   0.0000       4.487374       122.1076 
 358   0.0000       4.487402       122.1084 
 359   0.0000       4.548816       123.7796 
 360   0.0000       4.568373       124.3118 
 361   0.0000       4.612842       125.5218 
 362   0.0000       4.791226       130.3759 
 363   0.0000       4.814619       131.0124 
 364   0.0000       4.814667       131.0138 
 365   0.0000       4.911827       133.6576 
 366   0.0000       5.190180       141.2320 
 367   0.0000       5.190187       141.2322 
 368   0.0000       5.190267       141.2343 
 369   0.0000       5.190742       141.2473 
 370   0.0000       5.190815       141.2492 
 371   0.0000       5.192070       141.2834 
 372   0.0000       5.192111       141.2845 
 373   0.0000       5.192116       141.2847 
 374   0.0000       5.216119       141.9378 
 375   0.0000       5.216123       141.9379 
 376   0.0000       5.570266       151.5746 
 377   0.0000       5.570269       151.5747 
 378   0.0000       5.572401       151.6327 
 379   0.0000       5.577536       151.7725 
 380   0.0000       5.586900       152.0273 
 381   0.0000       5.586908       152.0275 
 382   0.0000       5.590494       152.1251 
 383   0.0000       5.591127       152.1423 
 384   0.0000       5.603645       152.4829 
 385   0.0000       5.639372       153.4551 
 386   0.0000       5.809165       158.0754 
 387   0.0000       5.809184       158.0759 
 388   0.0000       5.819051       158.3444 
 389   0.0000       5.833593       158.7401 
 390   0.0000       5.842871       158.9926 
 391   0.0000       5.842880       158.9928 
 392   0.0000       6.040884       164.3808 
 393   0.0000       6.204478       168.8324 
 394   0.0000       6.284134       171.0000 
 395   0.0000       6.291127       171.1903 
 396   0.0000       6.291137       171.1906 
 397   0.0000       6.327488       172.1797 
 398   0.0000       6.463449       175.8794 
 399   0.0000       6.465041       175.9227 
 400   0.0000       6.474441       176.1785 
 401   0.0000       6.474470       176.1793 
 402   0.0000       6.487429       176.5319 
 403   0.0000       6.504098       176.9855 
 404   0.0000       6.504106       176.9857 
 405   0.0000       6.529394       177.6739 
 406   0.0000       6.529410       177.6743 
 407   0.0000       6.529741       177.6833 
 408   0.0000       6.533708       177.7912 
 409   0.0000       6.541507       178.0035 
 410   0.0000       6.547105       178.1558 
 411   0.0000       6.552698       178.3080 
 412   0.0000       6.552714       178.3084 
 413   0.0000       6.555080       178.3728 
 414   0.0000       6.576870       178.9657 
 415   0.0000       6.578897       179.0209 
 416   0.0000       6.709383       182.5716 
 417   0.0000       6.709397       182.5720 
 418   0.0000       6.713146       182.6740 
 419   0.0000       6.818357       185.5369 
 420   0.0000       6.890182       187.4914 
 421   0.0000       6.890201       187.4919 
 422   0.0000       6.900551       187.7735 
 423   0.0000       6.919066       188.2774 
 424   0.0000       6.930541       188.5896 
 425   0.0000       6.930549       188.5898 
 426   0.0000       6.978544       189.8958 
 427   0.0000       6.988178       190.1580 
 428   0.0000       6.989767       190.2012 
 429   0.0000       6.995016       190.3441 
 430   0.0000       6.995020       190.3442 
 431   0.0000       7.045977       191.7308 
 432   0.0000       7.058030       192.0588 
 433   0.0000       7.058059       192.0595 
 434   0.0000       7.084853       192.7887 
 435   0.0000       7.209703       196.1860 
 436   0.0000       7.209710       196.1862 
 437   0.0000       7.287197       198.2947 
 438   0.0000       7.318995       199.1600 
 439   0.0000       7.374136       200.6605 
 440   0.0000       7.471214       203.3021 
 441   0.0000       7.471246       203.3029 
 442   0.0000      23.425885       637.4507 
 443   0.0000      23.426036       637.4548 
 444   0.0000      23.658223       643.7730 
 445   0.0000      23.686691       644.5476 
 446   0.0000      23.878552       649.7684 
 447   0.0000      44.436841      1209.1879 
 448   0.0000      44.622061      1214.2280 
 449   0.0000      44.622081      1214.2286 
 450   0.0000      44.650904      1215.0129 
 451   0.0000      44.693623      1216.1753 

                    ********************************
                    * MULLIKEN POPULATION ANALYSIS *
                    ********************************

-----------------------
MULLIKEN ATOMIC CHARGES
-----------------------
   0 Cr:   -0.675001
   1 O :   -0.324514
   2 C :    0.462109
   3 C :    0.482929
   4 O :   -0.359003
   5 C :    0.462093
   6 O :   -0.324584
   7 C :    0.462413
   8 O :   -0.324548
   9 C :    0.462701
  10 O :   -0.324595
Sum of atomic charges:   -0.0000000

--------------------------------
MULLIKEN REDUCED ORBITAL CHARGES
--------------------------------
  0 Crs       :     6.811408  s :     6.811408
      pz      :     4.153641  p :    12.497412
      px      :     4.171890
      py      :     4.171881
      dz2     :     0.428525  d :     5.347259
      dxz     :     1.498130
      dyz     :     1.498135
      dx2y2   :     1.371368
      dxy     :     0.551101
      f0      :     0.003376  f :     0.018670
      f+1     :     0.003048
      f-1     :     0.003048
      f+2     :     0.000006
      f-2     :     0.000731
      f+3     :     0.004230
      f-3     :     0.004231
      g0      :     0.000058  g :     0.000252
      g+1     :     0.000010
      g-1     :     0.000010
      g+2     :     0.000005
      g-2     :     0.000054
      g+3     :     0.000009
      g-3     :     0.000009
      g+4     :     0.000080
      g-4     :     0.000018
  1 O s       :     3.993350  s :     3.993350
      pz      :     1.468934  p :     4.279527
      px      :     1.396894
      py      :     1.413698
      dz2     :     0.003607  d :     0.049785
      dxz     :     0.009990
      dyz     :     0.008036
      dx2y2   :     0.017160
      dxy     :     0.010993
      f0      :     0.000249  f :     0.001852
      f+1     :     0.000123
      f-1     :     0.000107
      f+2     :     0.000012
      f-2     :     0.000423
      f+3     :     0.000525
      f-3     :     0.000414
  2 C s       :     3.360329  s :     3.360329
      pz      :     0.600187  p :     2.049825
      px      :     0.737521
      py      :     0.712118
      dz2     :     0.001404  d :     0.111125
      dxz     :     0.029411
      dyz     :     0.024294
      dx2y2   :     0.057938
      dxy     :    -0.001922
      f0      :     0.002024  f :     0.016611
      f+1     :     0.001320
      f-1     :     0.001129
      f+2     :     0.000257
      f-2     :     0.003430
      f+3     :     0.004521
      f-3     :     0.003929
  3 C s       :     3.251708  s :     3.251708
      pz      :     0.871128  p :     2.117869
      px      :     0.623368
      py      :     0.623373
      dz2     :     0.000107  d :     0.129864
      dxz     :     0.059591
      dyz     :     0.059594
      dx2y2   :     0.004058
      dxy     :     0.006513
      f0      :     0.005842  f :     0.017631
      f+1     :     0.005699
      f-1     :     0.005699
      f+2     :     0.000211
      f-2     :     0.000158
      f+3     :     0.000011
      f-3     :     0.000011
  4 O s       :     3.995628  s :     3.995628
      pz      :     1.316727  p :     4.316429
      px      :     1.499850
      py      :     1.499852
      dz2     :     0.011733  d :     0.045133
      dxz     :     0.016932
      dyz     :     0.016933
      dx2y2   :    -0.000125
      dxy     :    -0.000340
      f0      :     0.000472  f :     0.001812
      f+1     :     0.000669
      f-1     :     0.000669
      f+2     :     0.000001
      f-2     :     0.000000
      f+3     :    -0.000000
      f-3     :    -0.000000
  5 C s       :     3.360280  s :     3.360280
      pz      :     0.600220  p :     2.049872
      px      :     0.737654
      py      :     0.711998
      dz2     :     0.001405  d :     0.111144
      dxz     :     0.029430
      dyz     :     0.024288
      dx2y2   :     0.057934
      dxy     :    -0.001915
      f0      :     0.002024  f :     0.016612
      f+1     :     0.001321
      f-1     :     0.001129
      f+2     :     0.000258
      f-2     :     0.003430
      f+3     :     0.004524
      f-3     :     0.003927
  6 O s       :     3.993394  s :     3.993394
      pz      :     1.468953  p :     4.279550
      px      :     1.396828
      py      :     1.413769
      dz2     :     0.003607  d :     0.049787
      dxz     :     0.009997
      dyz     :     0.008029
      dx2y2   :     0.017158
      dxy     :     0.010996
      f0      :     0.000249  f :     0.001852
      f+1     :     0.000123
      f-1     :     0.000107
      f+2     :     0.000012
      f-2     :     0.000423
      f+3     :     0.000525
      f-3     :     0.000414
  7 C s       :     3.359872  s :     3.359872
      pz      :     0.600255  p :     2.049938
      px      :     0.712156
      py      :     0.737527
      dz2     :     0.001417  d :     0.111165
      dxz     :     0.024302
      dyz     :     0.029414
      dx2y2   :     0.057942
      dxy     :    -0.001910
      f0      :     0.002023  f :     0.016611
      f+1     :     0.001130
      f-1     :     0.001321
      f+2     :     0.000258
      f-2     :     0.003430
      f+3     :     0.003929
      f-3     :     0.004521
  8 O s       :     3.993373  s :     3.993373
      pz      :     1.468955  p :     4.279538
      px      :     1.413688
      py      :     1.396895
      dz2     :     0.003608  d :     0.049786
      dxz     :     0.008036
      dyz     :     0.009989
      dx2y2   :     0.017158
      dxy     :     0.010995
      f0      :     0.000249  f :     0.001852
      f+1     :     0.000107
      f-1     :     0.000123
      f+2     :     0.000012
      f-2     :     0.000423
      f+3     :     0.000414
      f-3     :     0.000525
  9 C s       :     3.359634  s :     3.359634
      pz      :     0.600219  p :     2.049900
      px      :     0.712030
      py      :     0.737650
      dz2     :     0.001418  d :     0.111154
      dxz     :     0.024287
      dyz     :     0.029425
      dx2y2   :     0.057925
      dxy     :    -0.001901
      f0      :     0.002023  f :     0.016611
      f+1     :     0.001129
      f-1     :     0.001321
      f+2     :     0.000258
      f-2     :     0.003430
      f+3     :     0.003927
      f-3     :     0.004523
 10 O s       :     3.993423  s :     3.993423
      pz      :     1.468954  p :     4.279537
      px      :     1.413752
      py      :     1.396831
      dz2     :     0.003606  d :     0.049784
      dxz     :     0.008030
      dyz     :     0.009996
      dx2y2   :     0.017158
      dxy     :     0.010995
      f0      :     0.000249  f :     0.001852
      f+1     :     0.000107
      f-1     :     0.000123
      f+2     :     0.000012
      f-2     :     0.000423
      f+3     :     0.000414
      f-3     :     0.000525


                     *******************************
                     * LOEWDIN POPULATION ANALYSIS *
                     *******************************

----------------------
LOEWDIN ATOMIC CHARGES
----------------------
   0 Cr:   -0.295900
   1 O :    0.148185
   2 C :   -0.068356
   3 C :   -0.159223
   4 O :    0.135974
   5 C :   -0.068414
   6 O :    0.148187
   7 C :   -0.068418
   8 O :    0.148181
   9 C :   -0.068398
  10 O :    0.148182

-------------------------------
LOEWDIN REDUCED ORBITAL CHARGES
-------------------------------
  0 Crs       :     5.963033  s :     5.963033
      pz      :     4.132024  p :    12.761203
      px      :     4.314592
      py      :     4.314587
      dz2     :     0.613166  d :     5.484836
      dxz     :     1.366278
      dyz     :     1.366289
      dx2y2   :     1.242097
      dxy     :     0.897006
      f0      :     0.016716  f :     0.085679
      f+1     :     0.013100
      f-1     :     0.013099
      f+2     :     0.000039
      f-2     :     0.002561
      f+3     :     0.020080
      f-3     :     0.020084
      g0      :     0.000383  g :     0.001149
      g+1     :     0.000021
      g-1     :     0.000021
      g+2     :     0.000010
      g-2     :     0.000258
      g+3     :     0.000011
      g-3     :     0.000011
      g+4     :     0.000385
      g-4     :     0.000047
  1 O s       :     3.388380  s :     3.388380
      pz      :     1.332164  p :     4.271528
      px      :     1.483495
      py      :     1.455869
      dz2     :     0.026564  d :     0.185880
      dxz     :     0.022015
      dyz     :     0.017760
      dx2y2   :     0.037903
      dxy     :     0.081638
      f0      :     0.000511  f :     0.006028
      f+1     :     0.000722
      f-1     :     0.000597
      f+2     :     0.000024
      f-2     :     0.000860
      f+3     :     0.001523
      f-3     :     0.001791
  2 C s       :     2.925696  s :     2.925696
      pz      :     0.599635  p :     2.261855
      px      :     0.856632
      py      :     0.805587
      dz2     :     0.083571  d :     0.795301
      dxz     :     0.132036
      dyz     :     0.109269
      dx2y2   :     0.270512
      dxy     :     0.199913
      f0      :     0.010126  f :     0.085505
      f+1     :     0.007142
      f-1     :     0.006076
      f+2     :     0.000989
      f-2     :     0.016993
      f+3     :     0.023305
      f-3     :     0.020874
  3 C s       :     2.877814  s :     2.877814
      pz      :     1.057283  p :     2.276368
      px      :     0.609542
      py      :     0.609543
      dz2     :     0.272659  d :     0.918555
      dxz     :     0.295230
      dyz     :     0.295230
      dx2y2   :     0.018454
      dxy     :     0.036983
      f0      :     0.031060  f :     0.086486
      f+1     :     0.027157
      f-1     :     0.027157
      f+2     :     0.000659
      f-2     :     0.000377
      f+3     :     0.000038
      f-3     :     0.000038
  4 O s       :     3.380001  s :     3.380001
      pz      :     1.581876  p :     4.291000
      px      :     1.354561
      py      :     1.354562
      dz2     :     0.104979  d :     0.187017
      dxz     :     0.040941
      dyz     :     0.040941
      dx2y2   :     0.000047
      dxy     :     0.000109
      f0      :     0.003276  f :     0.006009
      f+1     :     0.001365
      f-1     :     0.001365
      f+2     :     0.000001
      f-2     :     0.000000
      f+3     :     0.000000
      f-3     :     0.000000
  5 C s       :     2.925650  s :     2.925650
      pz      :     0.599650  p :     2.261868
      px      :     0.856806
      py      :     0.805413
      dz2     :     0.083579  d :     0.795391
      dxz     :     0.132125
      dyz     :     0.109216
      dx2y2   :     0.270536
      dxy     :     0.199935
      f0      :     0.010126  f :     0.085505
      f+1     :     0.007146
      f-1     :     0.006072
      f+2     :     0.000992
      f-2     :     0.016990
      f+3     :     0.023315
      f-3     :     0.020865
  6 O s       :     3.388372  s :     3.388372
      pz      :     1.332178  p :     4.271533
      px      :     1.483583
      py      :     1.455772
      dz2     :     0.026564  d :     0.185880
      dxz     :     0.022030
      dyz     :     0.017747
      dx2y2   :     0.037911
      dxy     :     0.081628
      f0      :     0.000511  f :     0.006028
      f+1     :     0.000722
      f-1     :     0.000596
      f+2     :     0.000024
      f-2     :     0.000860
      f+3     :     0.001522
      f-3     :     0.001792
  7 C s       :     2.925658  s :     2.925658
      pz      :     0.599689  p :     2.261869
      px      :     0.805594
      py      :     0.856586
      dz2     :     0.083571  d :     0.795386
      dxz     :     0.109302
      dyz     :     0.132065
      dx2y2   :     0.270523
      dxy     :     0.199924
      f0      :     0.010122  f :     0.085506
      f+1     :     0.006079
      f-1     :     0.007145
      f+2     :     0.000993
      f-2     :     0.016992
      f+3     :     0.020873
      f-3     :     0.023301
  8 O s       :     3.388372  s :     3.388372
      pz      :     1.332206  p :     4.271537
      px      :     1.455868
      py      :     1.483464
      dz2     :     0.026558  d :     0.185883
      dxz     :     0.017773
      dyz     :     0.022025
      dx2y2   :     0.037899
      dxy     :     0.081628
      f0      :     0.000511  f :     0.006028
      f+1     :     0.000597
      f-1     :     0.000722
      f+2     :     0.000024
      f-2     :     0.000861
      f+3     :     0.001790
      f-3     :     0.001523
  9 C s       :     2.925671  s :     2.925671
      pz      :     0.599657  p :     2.261862
      px      :     0.805432
      py      :     0.856773
      dz2     :     0.083578  d :     0.795361
      dxz     :     0.109234
      dyz     :     0.132116
      dx2y2   :     0.270511
      dxy     :     0.199921
      f0      :     0.010125  f :     0.085505
      f+1     :     0.006074
      f-1     :     0.007146
      f+2     :     0.000993
      f-2     :     0.016990
      f+3     :     0.020865
      f-3     :     0.023312
 10 O s       :     3.388375  s :     3.388375
      pz      :     1.332186  p :     4.271535
      px      :     1.455784
      py      :     1.483565
      dz2     :     0.026562  d :     0.185881
      dxz     :     0.017752
      dyz     :     0.022031
      dx2y2   :     0.037908
      dxy     :     0.081627
      f0      :     0.000511  f :     0.006028
      f+1     :     0.000596
      f-1     :     0.000722
      f+2     :     0.000024
      f-2     :     0.000860
      f+3     :     0.001792
      f-3     :     0.001522


                      *****************************
                      * MAYER POPULATION ANALYSIS *
                      *****************************

  NA   - Mulliken gross atomic population
  ZA   - Total nuclear charge
  QA   - Mulliken gross atomic charge
  VA   - Mayer's total valence
  BVA  - Mayer's bonded valence
  FA   - Mayer's free valence

  ATOM       NA         ZA         QA         VA         BVA        FA
  0 Cr    24.6750    24.0000    -0.6750     5.6879     5.6879    -0.0000
  1 O      8.3245     8.0000    -0.3245     2.1811     2.1811    -0.0000
  2 C      5.5379     6.0000     0.4621     3.1197     3.1197     0.0000
  3 C      5.5171     6.0000     0.4829     3.2063     3.2063     0.0000
  4 O      8.3590     8.0000    -0.3590     2.0522     2.0522    -0.0000
  5 C      5.5379     6.0000     0.4621     3.1196     3.1196    -0.0000
  6 O      8.3246     8.0000    -0.3246     2.1809     2.1809     0.0000
  7 C      5.5376     6.0000     0.4624     3.1193     3.1193    -0.0000
  8 O      8.3245     8.0000    -0.3245     2.1809     2.1809    -0.0000
  9 C      5.5373     6.0000     0.4627     3.1195     3.1195    -0.0000
 10 O      8.3246     8.0000    -0.3246     2.1811     2.1811     0.0000

  Mayer bond orders larger than 0.100000
B(  0-Cr,  2-C ) :   1.0001 B(  0-Cr,  3-C ) :   1.3650 B(  0-Cr,  4-O ) :   0.1210 
B(  0-Cr,  5-C ) :   1.0002 B(  0-Cr,  7-C ) :   0.9996 B(  0-Cr,  9-C ) :   1.0001 
B(  1-O ,  2-C ) :   2.0928 B(  3-C ,  4-O ) :   1.9134 B(  5-C ,  6-O ) :   2.0926 
B(  7-C ,  8-O ) :   2.0925 B(  9-C , 10-O ) :   2.0926 

-------
TIMINGS
-------

Total SCF time: 0 days 0 hours 2 min 15 sec 

Total time                  ....     135.354 sec
Sum of individual times     ....     134.809 sec  ( 99.6%)

Fock matrix formation       ....     132.899 sec  ( 98.2%)
  XC integration            ....       3.531 sec  (  2.7% of F)
    Basis function eval.    ....       0.347 sec  (  9.8% of XC)
    Density eval.           ....       0.880 sec  ( 24.9% of XC)
    XC-Functional eval.     ....       0.083 sec  (  2.4% of XC)
    XC-Potential eval.      ....       1.462 sec  ( 41.4% of XC)
Diagonalization             ....       0.656 sec  (  0.5%)
Density matrix formation    ....       0.041 sec  (  0.0%)
Population analysis         ....       0.034 sec  (  0.0%)
Initial guess               ....       0.285 sec  (  0.2%)
Orbital Transformation      ....       0.000 sec  (  0.0%)
Orbital Orthonormalization  ....       0.000 sec  (  0.0%)
DIIS solution               ....       0.443 sec  (  0.3%)
Grid generation             ....       0.451 sec  (  0.3%)

-------------------------   --------------------
FINAL SINGLE POINT ENERGY     -1611.222433494880
-------------------------   --------------------


                            ***************************************
                            *     ORCA property calculations      *
                            ***************************************

                                    ---------------------
                                    Active property flags
                                    ---------------------
   (+) Dipole Moment


------------------------------------------------------------------------------
                       ORCA ELECTRIC PROPERTIES CALCULATION
------------------------------------------------------------------------------

Dipole Moment Calculation                       ... on
Quadrupole Moment Calculation                   ... off
Polarizability Calculation                      ... off
GBWName                                         ... MOR07_ed01.gbw
Electron density file                           ... MOR07_ed01.scfp
The origin for moment calculation is the CENTER OF MASS  = (-0.000002,  0.000002 -0.015990)

-------------
DIPOLE MOMENT
-------------
                                X             Y             Z
Electronic contribution:     -0.00033       0.00032      -2.43902
Nuclear contribution   :      0.00017      -0.00015       1.50310
                        -----------------------------------------
Total Dipole Moment    :     -0.00015       0.00017      -0.93592
                        -----------------------------------------
Magnitude (a.u.)       :      0.93592
Magnitude (Debye)      :      2.37892



--------------------
Rotational spectrum 
--------------------
 
Rotational constants in cm-1:     0.031146     0.031144     0.021766 
Rotational constants in MHz :   933.731625   933.679962   652.524637 

 Dipole components along the rotational axes: 
x,y,z [a.u.] :     0.000155     0.000168    -0.935922 
x,y,z [Debye]:     0.000393     0.000426    -2.378924 

 

Timings for individual modules:

Sum of individual times         ...      136.566 sec (=   2.276 min)
GTO integral calculation        ...        0.845 sec (=   0.014 min)   0.6 %
SCF iterations                  ...      135.721 sec (=   2.262 min)  99.4 %
                             ****ORCA TERMINATED NORMALLY****
TOTAL RUN TIME: 0 days 0 hours 2 minutes 17 seconds 116 msec
