
                                 *****************
                                 * O   R   C   A *
                                 *****************

           --- An Ab Initio, DFT and Semiempirical electronic structure package ---

                  #######################################################
                  #                        -***-                        #
                  #          Department of theory and spectroscopy      #
                  #               Directorship: Frank Neese             #
                  #        Max Planck Institute fuer Kohlenforschung    #
                  #                Kaiser Wilhelm Platz 1               #
                  #                 D-45470 Muelheim/Ruhr               #
                  #                      Germany                        #
                  #                                                     #
                  #                  All rights reserved                #
                  #                        -***-                        #
                  #######################################################


                         Program Version 4.2.0 -  RELEASE  -


 With contributions from (in alphabetic order):
   Daniel Aravena         : Magnetic Suceptibility
   Michael Atanasov       : Ab Initio Ligand Field Theory (pilot matlab implementation)
   Alexander A. Auer      : GIAO ZORA, VPT2
   Ute Becker             : Parallelization
   Giovanni Bistoni       : ED, misc. LED, open-shell LED, HFLED
   Martin Brehm           : Molecular dynamics
   Dmytro Bykov           : SCF Hessian
   Vijay G. Chilkuri      : MRCI spin determinant printing, contributions to CSF-ICE
   Dipayan Datta          : RHF DLPNO-CCSD density
   Achintya Kumar Dutta   : EOM-CC, STEOM-CC
   Dmitry Ganyushin       : Spin-Orbit,Spin-Spin,Magnetic field MRCI
   Miquel Garcia          : C-PCM Hessian, Gaussian charge scheme
   Yang Guo               : DLPNO-NEVPT2, CIM, IAO-localization
   Andreas Hansen         : Spin unrestricted coupled pair/coupled cluster methods
   Benjamin Helmich-Paris : CASSCF linear response (MC-RPA)
   Lee Huntington         : MR-EOM, pCC
   Robert Izsak           : Overlap fitted RIJCOSX, COSX-SCS-MP3, EOM
   Christian Kollmar      : KDIIS, OOCD, Brueckner-CCSD(T), CCSD density
   Simone Kossmann        : Meta GGA functionals, TD-DFT gradient, OOMP2, MP2 Hessian
   Martin Krupicka        : AUTO-CI
   Lucas Lang             : DCDCAS
   Dagmar Lenk            : GEPOL surface, SMD
   Dimitrios Liakos       : Extrapolation schemes; Compound Job, initial MDCI parallelization
   Dimitrios Manganas     : Further ROCIS development; embedding schemes
   Dimitrios Pantazis     : SARC Basis sets
   Taras Petrenko         : DFT Hessian,TD-DFT gradient, ASA, ECA, R-Raman, ABS, FL, XAS/XES, NRVS
   Peter Pinski           : DLPNO-MP2, DLPNO-MP2 Gradient
   Christoph Reimann      : Effective Core Potentials
   Marius Retegan         : Local ZFS, SOC
   Christoph Riplinger    : Optimizer, TS searches, QM/MM, DLPNO-CCSD(T), (RO)-DLPNO pert. Triples
   Tobias Risthaus        : Range-separated hybrids, TD-DFT gradient, RPA, STAB
   Michael Roemelt        : Original ROCIS implementation
   Masaaki Saitow         : Open-shell DLPNO-CCSD energy and density
   Barbara Sandhoefer     : DKH picture change effects
   Avijit Sen             : IP-ROCIS
   Kantharuban Sivalingam : CASSCF convergence, NEVPT2, FIC-MRCI
   Bernardo de Souza      : ESD, SOC TD-DFT
   Georgi Stoychev        : AutoAux, RI-MP2 NMR
   Willem Van den Heuvel  : Paramagnetic NMR
   Boris Wezisla          : Elementary symmetry handling
   Frank Wennmohs         : Technical directorship


 We gratefully acknowledge several colleagues who have allowed us to
 interface, adapt or use parts of their codes:
   Stefan Grimme, W. Hujo, H. Kruse,             : VdW corrections, initial TS optimization,
                  C. Bannwarth                     DFT functionals, gCP, sTDA/sTD-DF
   Ed Valeev, F. Pavosevic, A. Kumar             : LibInt (2-el integral package), F12 methods
   Garnet Chan, S. Sharma, J. Yang, R. Olivares  : DMRG
   Ulf Ekstrom                                   : XCFun DFT Library
   Mihaly Kallay                                 : mrcc  (arbitrary order and MRCC methods)
   Andreas Klamt, Michael Diedenhofen            : otool_cosmo (COSMO solvation model)
   Jiri Pittner, Ondrej Demel                    : Mk-CCSD
   Frank Weinhold                                : gennbo (NPA and NBO analysis)
   Christopher J. Cramer and Donald G. Truhlar   : smd solvation model
   Lars Goerigk                                  : TD-DFT with DH, B97 family of functionals
   V. Asgeirsson, H. Jonsson                     : NEB implementation
   FAccTs GmbH                                   : IRC, NEB, NEB-TS, Multilevel, MM, QM/MM, CI optimization
   S Lehtola, MJT Oliveira, MAL Marques          : LibXC Library


 Your calculation uses the libint2 library for the computation of 2-el integrals
 For citations please refer to: http://libint.valeyev.net

 Your ORCA version has been built with support for libXC version: 4.2.3
 For citations please refer to: https://tddft.org/programs/libxc/

 This ORCA versions uses:
   CBLAS   interface :  Fast vector & matrix operations
   LAPACKE interface :  Fast linear algebra routines
   SCALAPACK package :  Parallel linear algebra routines


Your calculation utilizes the DFT-NL dispersion correction.
Cite in your paper:
Vydrov, O. A.; Van Voorhis, T. J. Chem. Phys. 2010, 133, 244103
Hujo, W.; Grimme, S. J. Chem. Theory Comput. 2011, 7, 3866 
   

----- Orbital basis set information -----
Your calculation utilizes the basis: def2-TZVPPD
   F. Weigend and R. Ahlrichs, Phys. Chem. Chem. Phys. 7, 3297 (2005).
   D. Rappoport and F. Furche, J. Chem. Phys. 133 134105 (2010).

----- AuxJK basis set information -----
Your calculation utilizes the auxiliary basis: def2/JK
   H-Ba, Hf-Rn: F. Weigend, J. Comput. Chem. 29, 167 (2008).

================================================================================
                                        WARNINGS
                       Please study these warnings very carefully!
================================================================================


INFO   : the flag for use of LIBINT has been found!

================================================================================
                                       INPUT FILE
================================================================================
NAME = MOR01_accl.in
|  1> #
|  2> # MOR01_accl wB97M-V/Def2-TZVPPD
|  3> #
|  4> ! wb97m-v def2-tzvppd def2/jk grid4 nofinalgrid
|  5> 
|  6> *xyz 0 1
|  7> C        1.306659   -1.017500   -0.000028 
|  8> C        0.488515    0.240833   -0.000079 
|  9> H        2.367301   -0.760167   -0.001300 
| 10> H        1.052624   -1.613812   -0.881062 
| 11> H        1.054555   -1.612076    0.882774 
| 12> O        0.865971    1.367720    0.000018 
| 13> Cl      -1.304312   -0.135041    0.000005 
| 14> *
| 15> 
| 16> %maxcore 5000
| 17> 
| 18> %pal
| 19> nprocs = 24
| 20> end
| 21> 
| 22> 
| 23>                          ****END OF INPUT****
================================================================================

                       ****************************
                       * Single Point Calculation *
                       ****************************

---------------------------------
CARTESIAN COORDINATES (ANGSTROEM)
---------------------------------
  C      1.306659   -1.017500   -0.000028
  C      0.488515    0.240833   -0.000079
  H      2.367301   -0.760167   -0.001300
  H      1.052624   -1.613812   -0.881062
  H      1.054555   -1.612076    0.882774
  O      0.865971    1.367720    0.000018
  Cl    -1.304312   -0.135041    0.000005

----------------------------
CARTESIAN COORDINATES (A.U.)
----------------------------
  NO LB      ZA    FRAG     MASS         X           Y           Z
   0 C     6.0000    0    12.011    2.469228   -1.922796   -0.000053
   1 C     6.0000    0    12.011    0.923160    0.455108   -0.000149
   2 H     1.0000    0     1.008    4.473551   -1.436507   -0.002457
   3 H     1.0000    0     1.008    1.989171   -3.049663   -1.664966
   4 H     1.0000    0     1.008    1.992820   -3.046382    1.668201
   5 O     8.0000    0    15.999    1.636448    2.584616    0.000034
   6 Cl   17.0000    0    35.453   -2.464792   -0.255191    0.000009

--------------------------------
INTERNAL COORDINATES (ANGSTROEM)
--------------------------------
 C      0   0   0     0.000000000000     0.00000000     0.00000000
 C      1   0   0     1.500920233132     0.00000000     0.00000000
 H      1   2   0     1.091413461085   109.39354470     0.00000000
 H      1   2   3     1.093774515942   109.29563365   238.66057659
 H      1   2   3     1.093808218014   109.27598563   121.31046809
 O      2   1   3     1.188422211217   128.45033757   359.92100454
 Cl     2   1   3     1.831805099584   111.19033989   179.93209452

---------------------------
INTERNAL COORDINATES (A.U.)
---------------------------
 C      0   0   0     0.000000000000     0.00000000     0.00000000
 C      1   0   0     2.836328189481     0.00000000     0.00000000
 H      1   2   0     2.062472540325   109.39354470     0.00000000
 H      1   2   3     2.066934287393   109.29563365   238.66057659
 H      1   2   3     2.066997975080   109.27598563   121.31046809
 O      2   1   3     2.245792510669   128.45033757   359.92100454
 Cl     2   1   3     3.461609968934   111.19033989   179.93209452

---------------------
BASIS SET INFORMATION
---------------------
There are 4 groups of distinct atoms

 Group   1 Type C   : 12s6p3d1f contracted to 6s3p3d1f pattern {621111/411/111/1}
 Group   2 Type H   : 5s3p1d contracted to 3s3p1d pattern {311/111/1}
 Group   3 Type O   : 12s7p3d1f contracted to 6s4p3d1f pattern {621111/4111/111/1}
 Group   4 Type Cl  : 15s10p4d1f contracted to 6s6p4d1f pattern {732111/511111/1111/1}

Atom   0C    basis set group =>   1
Atom   1C    basis set group =>   1
Atom   2H    basis set group =>   2
Atom   3H    basis set group =>   2
Atom   4H    basis set group =>   2
Atom   5O    basis set group =>   3
Atom   6Cl   basis set group =>   4
----------------------------------
AUXILIARY/JK BASIS SET INFORMATION
----------------------------------
There are 4 groups of distinct atoms

 Group   1 Type C   : 14s10p6d2f1g contracted to 10s8p5d1f1g pattern {5111111111/31111111/21111/2/1}
 Group   2 Type H   : 4s2p2d contracted to 2s2p2d pattern {31/11/11}
 Group   3 Type O   : 14s10p6d2f1g contracted to 10s8p4d2f1g pattern {5111111111/31111111/3111/11/1}
 Group   4 Type Cl  : 16s12p10d4f1g contracted to 13s11p9d4f1g pattern {4111111111111/21111111111/211111111/1111/1}

Atom   0C    basis set group =>   1
Atom   1C    basis set group =>   1
Atom   2H    basis set group =>   2
Atom   3H    basis set group =>   2
Atom   4H    basis set group =>   2
Atom   5O    basis set group =>   3
Atom   6Cl   basis set group =>   4


           ************************************************************
           *        Program running with 24 parallel MPI-processes    *
           *              working on a common directory               *
           ************************************************************
------------------------------------------------------------------------------
                           ORCA GTO INTEGRAL CALCULATION
------------------------------------------------------------------------------

                         BASIS SET STATISTICS AND STARTUP INFO

 # of primitive gaussian shells          ...  124
 # of primitive gaussian functions       ...  288
 # of contracted shells                  ...   78
 # of contracted basis functions         ...  216
 Highest angular momentum                ...    3
 Maximum contraction depth               ...    7
 Integral package used                   ... LIBINT
 Integral threshhold            Thresh   ...  1.000e-10
 Primitive cut-off              TCut     ...  1.000e-11


------------------------------ INTEGRAL EVALUATION ----------------------------


 * One electron integrals 
 Pre-screening matrix                    ... done
 Shell pair data                         ... done (   0.001 sec)



           ************************************************************
           *        Program running with 24 parallel MPI-processes    *
           *              working on a common directory               *
           ************************************************************
-------------------------------------------------------------------------------
                                 ORCA SCF
-------------------------------------------------------------------------------

------------
SCF SETTINGS
------------
Hamiltonian:
 Density Functional     Method          .... DFT(GTOs)
 Exchange Functional    Exchange        .... WB97M-V
 Correlation Functional Correlation     .... WB97M-V
 Gradients option       PostSCFGGA      .... off
 Hybrid DFT is turned on
   Fraction HF Exchange ScalHFX         ....  0.150000
   Scaling of DF-GGA-X  ScalDFX         ....  0.000000
   Scaling of DF-GGA-C  ScalDFC         ....  1.000000
   Scaling of DF-LDA-C  ScalLDAC        ....  1.000000
   Perturbative correction              ....  0.000000
   Density functional embedding theory  .... OFF
 Long-range corrected/Screened/Range-Separated Hybrid DFT is turned on
   Amount of maximum screened exact exchange              ....  0.850000
   Range separation parameter mu (erf(mu*r12)/r12)        ....  0.300000
   NL short-range parameter             ....  6.000000
   NL long-range parameter              ....  0.010000


General Settings:
 Integral files         IntName         .... MOR01_accl
 Hartree-Fock type      HFTyp           .... RHF
 Total Charge           Charge          ....    0
 Multiplicity           Mult            ....    1
 Number of Electrons    NEL             ....   40
 Basis Dimension        Dim             ....  216
 Nuclear Repulsion      ENuc            ....    147.8518070522 Eh

Convergence Acceleration:
 DIIS                   CNVDIIS         .... on
   Start iteration      DIISMaxIt       ....    12
   Startup error        DIISStart       ....  0.200000
   # of expansion vecs  DIISMaxEq       ....     5
   Bias factor          DIISBfac        ....   1.050
   Max. coefficient     DIISMaxC        ....  10.000
 Newton-Raphson         CNVNR           .... off
 SOSCF                  CNVSOSCF        .... on
   Start iteration      SOSCFMaxIt      ....   150
   Startup grad/error   SOSCFStart      ....  0.003300
 Level Shifting         CNVShift        .... on
   Level shift para.    LevelShift      ....    0.2500
   Turn off err/grad.   ShiftErr        ....    0.0010
 Zerner damping         CNVZerner       .... off
 Static damping         CNVDamp         .... on
   Fraction old density DampFac         ....    0.7000
   Max. Damping (<1)    DampMax         ....    0.9800
   Min. Damping (>=0)   DampMin         ....    0.0000
   Turn off err/grad.   DampErr         ....    0.1000
 Fernandez-Rico         CNVRico         .... off

SCF Procedure:
 Maximum # iterations   MaxIter         ....   125
 SCF integral mode      SCFMode         .... Direct
   Integral package                     .... LIBINT
 Reset frequency        DirectResetFreq ....    20
 Integral Threshold     Thresh          ....  1.000e-10 Eh
 Primitive CutOff       TCut            ....  1.000e-11 Eh

Convergence Tolerance:
 Convergence Check Mode ConvCheckMode   .... Total+1el-Energy
 Convergence forced     ConvForced      .... 0
 Energy Change          TolE            ....  1.000e-06 Eh
 1-El. energy change                    ....  1.000e-03 Eh
 Orbital Gradient       TolG            ....  5.000e-05
 Orbital Rotation angle TolX            ....  5.000e-05
 DIIS Error             TolErr          ....  1.000e-06


Diagonalization of the overlap matrix:
Smallest eigenvalue                        ... 1.309e-05
Time for diagonalization                   ...    0.008 sec
Threshold for overlap eigenvalues          ... 1.000e-08
Number of eigenvalues below threshold      ... 0
Time for construction of square roots      ...    0.006 sec
Total time needed                          ...    0.014 sec

-------------------
DFT GRID GENERATION
-------------------

General Integration Accuracy     IntAcc      ...  4.670
Radial Grid Type                 RadialGrid  ... Gauss-Chebyshev
Angular Grid (max. acc.)         AngularGrid ... Lebedev-302
Angular grid pruning method      GridPruning ... 3 (G Style)
Weight generation scheme         WeightScheme... Becke
Basis function cutoff            BFCut       ...    1.0000e-10
Integration weight cutoff        WCut        ...    1.0000e-14
Grids for H and He will be reduced by one unit

# of grid points (after initial pruning)     ...  35556 (   0.0 sec)
# of grid points (after weights+screening)   ...  34186 (   0.0 sec)
nearest neighbour list constructed           ...    0.0 sec
Grid point re-assignment to atoms done       ...    0.0 sec
Grid point division into batches done        ...    0.1 sec
Reduced shell lists constructed in    0.1 sec

Total number of grid points                  ...    34186
Total number of batches                      ...      536
Average number of points per batch           ...       63
Average number of grid points per atom       ...     4884
Average number of shells per batch           ...    64.17 (82.26%)
Average number of basis functions per batch  ...   183.17 (84.80%)
Average number of large shells per batch     ...    59.75 (93.12%)
Average number of large basis fcns per batch ...   168.50 (91.99%)
Maximum spatial batch extension              ...   1.41,  1.40,  1.88 au
Average spatial batch extension              ...   0.05,  0.04,  0.05 au

Time for grid setup =    0.199 sec

------------------------------
INITIAL GUESS: MODEL POTENTIAL
------------------------------
Loading Hartree-Fock densities                     ... done
Calculating cut-offs                               ... done
Setting up the integral package                    ... done
Initializing the effective Hamiltonian             ... done
Starting the Coulomb interaction                   ... done (   0.0 sec)
Reading the grid                                   ... done
Mapping shells                                     ... done
Starting the XC term evaluation                    ... done (   0.0 sec)
  promolecular density results
     # of electrons  =     39.998500665
     EX              =    -46.611347372
     EC              =     -1.417887915
     EX+EC           =    -48.029235287
Transforming the Hamiltonian                       ... done (   0.0 sec)
Diagonalizing the Hamiltonian                      ... done (   0.0 sec)
Back transforming the eigenvectors                 ... done (   0.0 sec)
Now organizing SCF variables                       ... done
                      ------------------
                      INITIAL GUESS DONE (   0.3 sec)
                      ------------------
--------------
SCF ITERATIONS
--------------
ITER       Energy         Delta-E        Max-DP      RMS-DP      [F,P]     Damp
               ***  Starting incremental Fock matrix formation  ***
  0   -613.4793009036   0.000000000000 0.04697576  0.00118620  0.2675916 0.7000
  1   -613.5369263990  -0.057625495445 0.04519642  0.00095453  0.1239209 0.7000
                               ***Turning on DIIS***
  2   -613.5612190495  -0.024292650548 0.11675339  0.00224424  0.0543711 0.0000
  3   -613.6029892277  -0.041770178122 0.02119901  0.00044649  0.0583012 0.0000
  4   -613.6094081027  -0.006418875061 0.01216968  0.00017992  0.0154339 0.0000
  5   -613.6097944022  -0.000386299440 0.00482507  0.00008713  0.0033616 0.0000
                      *** Initiating the SOSCF procedure ***
                           *** Shutting down DIIS ***
                      *** Re-Reading the Fockian *** 
                      *** Removing any level shift *** 
ITER      Energy       Delta-E        Grad      Rot      Max-DP    RMS-DP
  6   -613.60984222  -0.0000478131  0.001243  0.001243  0.001502  0.000033
               *** Restarting incremental Fock matrix formation ***
  7   -613.60985810  -0.0000158848  0.000662  0.001428  0.000669  0.000018
  8   -613.60986344  -0.0000053423  0.000258  0.001329  0.000636  0.000019
  9   -613.60986487  -0.0000014286  0.000071  0.000119  0.000312  0.000005
 10   -613.60986510  -0.0000002278  0.000046  0.000052  0.000194  0.000003
                 **** Energy Check signals convergence ****
              ***Rediagonalizing the Fockian in SOSCF/NRSCF***

               *****************************************************
               *                     SUCCESS                       *
               *           SCF CONVERGED AFTER  11 CYCLES          *
               *****************************************************


Setting up the DFT-NL grid :

General Integration Accuracy     IntAcc      ...  4.340
Radial Grid Type                 RadialGrid  ... Gauss-Chebyshev
Angular Grid (max. acc.)         AngularGrid ... Lebedev-110
Angular grid pruning method      GridPruning ... 3 (G Style)
Weight generation scheme         WeightScheme... Becke
Basis function cutoff            BFCut       ...    1.0000e-10
Integration weight cutoff        WCut        ...    1.0000e-14
Grids for H and He will be reduced by one unit

# of grid points (after initial pruning)     ...   9254 (   0.0 sec)
# of grid points (after weights+screening)   ...   8981 (   0.0 sec)
nearest neighbour list constructed           ...    0.0 sec
Grid point re-assignment to atoms done       ...    0.0 sec
Grid point division into batches done        ...    0.0 sec
Reduced shell lists constructed in    0.0 sec

Total number of grid points                  ...     8981
Total number of batches                      ...      143
Average number of points per batch           ...       62
Average number of grid points per atom       ...     1283
Average number of shells per batch           ...    58.43 (74.91%)
Average number of basis functions per batch  ...   167.00 (77.31%)
Average number of large shells per batch     ...    55.14 (94.38%)
Average number of large basis fcns per batch ...   154.86 (92.73%)
Maximum spatial batch extension              ...   1.86,  2.12,  2.29 au
Average spatial batch extension              ...   0.07,  0.07,  0.07 au

Final grid set up in    0.0 sec

-------------------------------------------------------------------------------
                         DFT-NL dispersion correction                          
-------------------------------------------------------------------------------

SC Energy -613.609865109 
NL    Energy 0.162035007 
SC+NL Energy -613.447830103 
NL done in    0.0 sec
-------------------------------------------------------------------------------

----------------
TOTAL SCF ENERGY
----------------

Total Energy       :         -613.44783010 Eh          -16692.76410 eV

Components:
Nuclear Repulsion  :          147.85180705 Eh            4023.25221 eV
Electronic Energy  :         -761.29963715 Eh          -20716.01631 eV
One Electron Energy:        -1136.49116124 Eh          -30925.49672 eV
Two Electron Energy:          375.19152409 Eh           10209.48041 eV

Virial components:
Potential Energy   :        -1225.62939852 Eh          -33351.07147 eV
Kinetic Energy     :          612.18156842 Eh           16658.30737 eV
Virial Ratio       :            2.00206844


DFT components:
N(Alpha)           :       19.999998170295 electrons
N(Beta)            :       19.999998170295 electrons
N(Total)           :       39.999996340590 electrons
E(X)               :      -34.895018798900 Eh       
E(C)               :       -1.497181887570 Eh       
NL Energy, E(C,NL) :        0.162035006730 Eh       
E(XC)              :      -36.230165679741 Eh       
DFET-embed. en.    :        0.000000000000 Eh       

---------------
SCF CONVERGENCE
---------------

  Last Energy change         ...   -1.0676e-08  Tolerance :   1.0000e-06
  Last MAX-Density change    ...    9.1990e-05  Tolerance :   1.0000e-05
  Last RMS-Density change    ...    1.6989e-06  Tolerance :   1.0000e-06
  Last Orbital Gradient      ...    1.9864e-05  Tolerance :   5.0000e-05
  Last Orbital Rotation      ...    2.8515e-05  Tolerance :   5.0000e-05

             **** THE GBW FILE WAS UPDATED (MOR01_accl.gbw) ****
             **** DENSITY FILE WAS UPDATED (MOR01_accl.scfp) ****
             **** ENERGY FILE WAS UPDATED (MOR01_accl.en.tmp) ****
             **** THE GBW FILE WAS UPDATED (MOR01_accl.gbw) ****
             **** DENSITY FILE WAS UPDATED (MOR01_accl.scfp) ****
----------------
ORBITAL ENERGIES
----------------

  NO   OCC          E(Eh)            E(eV) 
   0   2.0000    -101.880731     -2772.3156 
   1   2.0000     -19.376480      -527.2608 
   2   2.0000     -10.514918      -286.1255 
   3   2.0000     -10.385683      -282.6088 
   4   2.0000      -9.653600      -262.6878 
   5   2.0000      -7.357197      -200.1995 
   6   2.0000      -7.350850      -200.0268 
   7   2.0000      -7.349908      -200.0012 
   8   2.0000      -1.233087       -33.5540 
   9   2.0000      -0.976726       -26.5781 
  10   2.0000      -0.894119       -24.3302 
  11   2.0000      -0.685072       -18.6417 
  12   2.0000      -0.610824       -16.6214 
  13   2.0000      -0.594799       -16.1853 
  14   2.0000      -0.593555       -16.1514 
  15   2.0000      -0.530717       -14.4415 
  16   2.0000      -0.511030       -13.9058 
  17   2.0000      -0.429513       -11.6877 
  18   2.0000      -0.426718       -11.6116 
  19   2.0000      -0.405281       -11.0283 
  20   0.0000       0.026972         0.7340 
  21   0.0000       0.034324         0.9340 
  22   0.0000       0.048730         1.3260 
  23   0.0000       0.056935         1.5493 
  24   0.0000       0.067303         1.8314 
  25   0.0000       0.071259         1.9391 
  26   0.0000       0.087282         2.3751 
  27   0.0000       0.103813         2.8249 
  28   0.0000       0.106635         2.9017 
  29   0.0000       0.115446         3.1415 
  30   0.0000       0.129522         3.5245 
  31   0.0000       0.153855         4.1866 
  32   0.0000       0.167668         4.5625 
  33   0.0000       0.173179         4.7124 
  34   0.0000       0.189940         5.1685 
  35   0.0000       0.210962         5.7406 
  36   0.0000       0.226670         6.1680 
  37   0.0000       0.230965         6.2849 
  38   0.0000       0.251264         6.8373 
  39   0.0000       0.272963         7.4277 
  40   0.0000       0.275672         7.5014 
  41   0.0000       0.285003         7.7553 
  42   0.0000       0.292351         7.9553 
  43   0.0000       0.302463         8.2304 
  44   0.0000       0.312226         8.4961 
  45   0.0000       0.323434         8.8011 
  46   0.0000       0.328619         8.9422 
  47   0.0000       0.329776         8.9737 
  48   0.0000       0.337966         9.1965 
  49   0.0000       0.361273         9.8307 
  50   0.0000       0.364093         9.9075 
  51   0.0000       0.376218        10.2374 
  52   0.0000       0.379329        10.3221 
  53   0.0000       0.381883        10.3916 
  54   0.0000       0.417352        11.3567 
  55   0.0000       0.419276        11.4091 
  56   0.0000       0.438502        11.9322 
  57   0.0000       0.441736        12.0202 
  58   0.0000       0.447778        12.1847 
  59   0.0000       0.456902        12.4329 
  60   0.0000       0.499200        13.5839 
  61   0.0000       0.510939        13.9034 
  62   0.0000       0.530361        14.4318 
  63   0.0000       0.557128        15.1602 
  64   0.0000       0.566524        15.4159 
  65   0.0000       0.570414        15.5218 
  66   0.0000       0.604345        16.4451 
  67   0.0000       0.615893        16.7593 
  68   0.0000       0.617606        16.8059 
  69   0.0000       0.633940        17.2504 
  70   0.0000       0.643220        17.5029 
  71   0.0000       0.652929        17.7671 
  72   0.0000       0.687451        18.7065 
  73   0.0000       0.711370        19.3574 
  74   0.0000       0.715824        19.4786 
  75   0.0000       0.717121        19.5139 
  76   0.0000       0.746580        20.3155 
  77   0.0000       0.748168        20.3587 
  78   0.0000       0.753459        20.5027 
  79   0.0000       0.765010        20.8170 
  80   0.0000       0.768430        20.9101 
  81   0.0000       0.786221        21.3942 
  82   0.0000       0.830435        22.5973 
  83   0.0000       0.859867        23.3982 
  84   0.0000       0.861891        23.4533 
  85   0.0000       0.892101        24.2753 
  86   0.0000       0.920126        25.0379 
  87   0.0000       0.964462        26.2444 
  88   0.0000       0.969239        26.3743 
  89   0.0000       1.040692        28.3187 
  90   0.0000       1.050898        28.5964 
  91   0.0000       1.066954        29.0333 
  92   0.0000       1.159912        31.5628 
  93   0.0000       1.163490        31.6602 
  94   0.0000       1.193553        32.4782 
  95   0.0000       1.207812        32.8662 
  96   0.0000       1.224733        33.3267 
  97   0.0000       1.246943        33.9310 
  98   0.0000       1.283001        34.9122 
  99   0.0000       1.335087        36.3296 
 100   0.0000       1.340298        36.4714 
 101   0.0000       1.410171        38.3727 
 102   0.0000       1.533490        41.7284 
 103   0.0000       1.539725        41.8980 
 104   0.0000       1.551387        42.2154 
 105   0.0000       1.600162        43.5426 
 106   0.0000       1.621828        44.1322 
 107   0.0000       1.631368        44.3918 
 108   0.0000       1.678427        45.6723 
 109   0.0000       1.734259        47.1916 
 110   0.0000       1.809800        49.2471 
 111   0.0000       1.852610        50.4121 
 112   0.0000       1.863490        50.7081 
 113   0.0000       1.967393        53.5355 
 114   0.0000       1.984386        53.9979 
 115   0.0000       2.000027        54.4235 
 116   0.0000       2.015848        54.8540 
 117   0.0000       2.017088        54.8877 
 118   0.0000       2.026041        55.1314 
 119   0.0000       2.060533        56.0699 
 120   0.0000       2.087711        56.8095 
 121   0.0000       2.109270        57.3961 
 122   0.0000       2.113843        57.5206 
 123   0.0000       2.148220        58.4560 
 124   0.0000       2.195683        59.7476 
 125   0.0000       2.196334        59.7653 
 126   0.0000       2.269044        61.7438 
 127   0.0000       2.304779        62.7162 
 128   0.0000       2.398259        65.2600 
 129   0.0000       2.410194        65.5847 
 130   0.0000       2.498969        68.0004 
 131   0.0000       2.521211        68.6056 
 132   0.0000       2.535965        69.0071 
 133   0.0000       2.565999        69.8244 
 134   0.0000       2.593867        70.5827 
 135   0.0000       2.720880        74.0389 
 136   0.0000       2.765633        75.2567 
 137   0.0000       2.769250        75.3551 
 138   0.0000       2.799384        76.1751 
 139   0.0000       2.814267        76.5801 
 140   0.0000       2.869868        78.0931 
 141   0.0000       2.887957        78.5853 
 142   0.0000       2.958115        80.4944 
 143   0.0000       2.962187        80.6052 
 144   0.0000       3.051538        83.0366 
 145   0.0000       3.076862        83.7257 
 146   0.0000       3.129883        85.1684 
 147   0.0000       3.134517        85.2946 
 148   0.0000       3.169138        86.2366 
 149   0.0000       3.208531        87.3086 
 150   0.0000       3.245762        88.3217 
 151   0.0000       3.287015        89.4442 
 152   0.0000       3.330951        90.6398 
 153   0.0000       3.364648        91.5567 
 154   0.0000       3.365601        91.5827 
 155   0.0000       3.441141        93.6382 
 156   0.0000       3.448244        93.8315 
 157   0.0000       3.505266        95.3831 
 158   0.0000       3.561819        96.9220 
 159   0.0000       3.572527        97.2134 
 160   0.0000       3.599077        97.9359 
 161   0.0000       3.650327        99.3304 
 162   0.0000       3.668030        99.8122 
 163   0.0000       3.756510       102.2198 
 164   0.0000       3.850794       104.7854 
 165   0.0000       3.932520       107.0093 
 166   0.0000       3.934197       107.0550 
 167   0.0000       4.004985       108.9812 
 168   0.0000       4.017280       109.3157 
 169   0.0000       4.058379       110.4341 
 170   0.0000       4.143278       112.7443 
 171   0.0000       4.170234       113.4778 
 172   0.0000       4.217495       114.7639 
 173   0.0000       4.222903       114.9110 
 174   0.0000       4.328676       117.7893 
 175   0.0000       4.408278       119.9554 
 176   0.0000       4.460469       121.3755 
 177   0.0000       4.472856       121.7126 
 178   0.0000       4.633093       126.0729 
 179   0.0000       4.669420       127.0614 
 180   0.0000       4.722479       128.5052 
 181   0.0000       4.839331       131.6849 
 182   0.0000       4.901948       133.3888 
 183   0.0000       5.101523       138.8195 
 184   0.0000       5.181078       140.9843 
 185   0.0000       5.228588       142.2771 
 186   0.0000       5.263552       143.2285 
 187   0.0000       5.273328       143.4945 
 188   0.0000       5.296833       144.1342 
 189   0.0000       5.330457       145.0491 
 190   0.0000       5.370466       146.1378 
 191   0.0000       5.412012       147.2683 
 192   0.0000       5.625152       153.0682 
 193   0.0000       5.675193       154.4299 
 194   0.0000       5.709115       155.3529 
 195   0.0000       5.754819       156.5966 
 196   0.0000       6.327177       172.1712 
 197   0.0000       6.528430       177.6476 
 198   0.0000       6.575767       178.9357 
 199   0.0000       6.596326       179.4952 
 200   0.0000       6.667347       181.4277 
 201   0.0000       6.933928       188.6818 
 202   0.0000       7.092529       192.9975 
 203   0.0000       7.291456       198.4106 
 204   0.0000       8.265760       224.9228 
 205   0.0000       8.275438       225.1861 
 206   0.0000       8.288066       225.5298 
 207   0.0000       8.367594       227.6938 
 208   0.0000       8.406221       228.7449 
 209   0.0000      11.066898       301.1456 
 210   0.0000      11.175367       304.0972 
 211   0.0000      11.516698       313.3853 
 212   0.0000      23.231012       632.1480 
 213   0.0000      23.911994       650.6784 
 214   0.0000      26.477134       720.4795 
 215   0.0000      44.564072      1212.6500 

                    ********************************
                    * MULLIKEN POPULATION ANALYSIS *
                    ********************************

-----------------------
MULLIKEN ATOMIC CHARGES
-----------------------
   0 C :   -0.690074
   1 C :    0.610839
   2 H :    0.233455
   3 H :    0.245819
   4 H :    0.245545
   5 O :   -0.418988
   6 Cl:   -0.226597
Sum of atomic charges:   -0.0000000

--------------------------------
MULLIKEN REDUCED ORBITAL CHARGES
--------------------------------
  0 C s       :     3.316595  s :     3.316595
      pz      :     1.175301  p :     3.278398
      px      :     1.153220
      py      :     0.949876
      dz2     :     0.021445  d :     0.092774
      dxz     :     0.016873
      dyz     :     0.025589
      dx2y2   :     0.020963
      dxy     :     0.007904
      f0      :     0.000177  f :     0.002308
      f+1     :     0.000135
      f-1     :     0.000453
      f+2     :     0.000128
      f-2     :     0.000098
      f+3     :     0.000717
      f-3     :     0.000599
  1 C s       :     3.075774  s :     3.075774
      pz      :     0.680031  p :     2.093208
      px      :     0.714729
      py      :     0.698448
      dz2     :     0.003136  d :     0.202117
      dxz     :     0.024181
      dyz     :     0.046184
      dx2y2   :     0.059604
      dxy     :     0.069013
      f0      :     0.002346  f :     0.018061
      f+1     :     0.000908
      f-1     :     0.001452
      f+2     :     0.002189
      f-2     :     0.001282
      f+3     :     0.004175
      f-3     :     0.005708
  2 H s       :     0.713103  s :     0.713103
      pz      :     0.020606  p :     0.051147
      px      :     0.026053
      py      :     0.004488
      dz2     :     0.000150  d :     0.002295
      dxz     :     0.000734
      dyz     :     0.000063
      dx2y2   :     0.000554
      dxy     :     0.000794
  3 H s       :     0.707337  s :     0.707337
      pz      :     0.014997  p :     0.044559
      px      :     0.012322
      py      :     0.017240
      dz2     :     0.000729  d :     0.002284
      dxz     :     0.000466
      dyz     :     0.000521
      dx2y2   :     0.000293
      dxy     :     0.000275
  4 H s       :     0.707558  s :     0.707558
      pz      :     0.015035  p :     0.044613
      px      :     0.012371
      py      :     0.017207
      dz2     :     0.000730  d :     0.002284
      dxz     :     0.000468
      dyz     :     0.000522
      dx2y2   :     0.000291
      dxy     :     0.000273
  5 O s       :     4.014004  s :     4.014004
      pz      :     1.338075  p :     4.366076
      px      :     1.686743
      py      :     1.341259
      dz2     :     0.002317  d :     0.036859
      dxz     :     0.000982
      dyz     :     0.016518
      dx2y2   :     0.007918
      dxy     :     0.009125
      f0      :     0.000202  f :     0.002048
      f+1     :     0.000038
      f-1     :     0.000158
      f+2     :     0.000337
      f-2     :     0.000197
      f+3     :     0.000535
      f-3     :     0.000581
  6 Cls       :     5.970885  s :     5.970885
      pz      :     3.910479  p :    11.211935
      px      :     3.349681
      py      :     3.951775
      dz2     :     0.006197  d :     0.039968
      dxz     :     0.008192
      dyz     :     0.000246
      dx2y2   :     0.017654
      dxy     :     0.007679
      f0      :     0.000266  f :     0.003810
      f+1     :     0.000796
      f-1     :     0.000076
      f+2     :     0.000375
      f-2     :     0.000107
      f+3     :     0.001276
      f-3     :     0.000913


                     *******************************
                     * LOEWDIN POPULATION ANALYSIS *
                     *******************************

----------------------
LOEWDIN ATOMIC CHARGES
----------------------
   0 C :    0.128558
   1 C :   -0.753884
   2 H :    0.000381
   3 H :   -0.003968
   4 H :   -0.003876
   5 O :    0.066506
   6 Cl:    0.566284

-------------------------------
LOEWDIN REDUCED ORBITAL CHARGES
-------------------------------
  0 C s       :     2.646101  s :     2.646101
      pz      :     0.928854  p :     2.729198
      px      :     0.917844
      py      :     0.882500
      dz2     :     0.079731  d :     0.466383
      dxz     :     0.036375
      dyz     :     0.101723
      dx2y2   :     0.144387
      dxy     :     0.104167
      f0      :     0.001304  f :     0.029760
      f+1     :     0.004838
      f-1     :     0.005857
      f+2     :     0.002675
      f-2     :     0.002975
      f+3     :     0.006848
      f-3     :     0.005264
  1 C s       :     2.742070  s :     2.742070
      pz      :     0.646036  p :     2.492857
      px      :     0.856979
      py      :     0.989842
      dz2     :     0.112034  d :     1.406745
      dxz     :     0.175250
      dyz     :     0.210034
      dx2y2   :     0.473144
      dxy     :     0.436283
      f0      :     0.008536  f :     0.112212
      f+1     :     0.005125
      f-1     :     0.009914
      f+2     :     0.012831
      f-2     :     0.009698
      f+3     :     0.028555
      f-3     :     0.037553
  2 H s       :     0.693970  s :     0.693970
      pz      :     0.075310  p :     0.275500
      px      :     0.127098
      py      :     0.073092
      dz2     :     0.002742  d :     0.030148
      dxz     :     0.009025
      dyz     :     0.000735
      dx2y2   :     0.008745
      dxy     :     0.008902
  3 H s       :     0.688465  s :     0.688465
      pz      :     0.113352  p :     0.285341
      px      :     0.083076
      py      :     0.088912
      dz2     :     0.009419  d :     0.030163
      dxz     :     0.005956
      dyz     :     0.008055
      dx2y2   :     0.003391
      dxy     :     0.003342
  4 H s       :     0.688422  s :     0.688422
      pz      :     0.113484  p :     0.285293
      px      :     0.082998
      py      :     0.088811
      dz2     :     0.009432  d :     0.030161
      dxz     :     0.005978
      dyz     :     0.008065
      dx2y2   :     0.003366
      dxy     :     0.003320
  5 O s       :     3.362724  s :     3.362724
      pz      :     1.226124  p :     4.312610
      px      :     1.556273
      py      :     1.530213
      dz2     :     0.029985  d :     0.251677
      dxz     :     0.007138
      dyz     :     0.036233
      dx2y2   :     0.088625
      dxy     :     0.089696
      f0      :     0.000455  f :     0.006483
      f+1     :     0.000233
      f-1     :     0.000956
      f+2     :     0.000540
      f-2     :     0.000350
      f+3     :     0.002071
      f-3     :     0.001878
  6 Cls       :     5.492236  s :     5.492236
      pz      :     3.723767  p :    10.757637
      px      :     3.290156
      py      :     3.743714
      dz2     :     0.027463  d :     0.176084
      dxz     :     0.032123
      dyz     :     0.004066
      dx2y2   :     0.059282
      dxy     :     0.053149
      f0      :     0.000453  f :     0.007758
      f+1     :     0.001752
      f-1     :     0.000190
      f+2     :     0.000596
      f-2     :     0.000150
      f+3     :     0.002653
      f-3     :     0.001963


                      *****************************
                      * MAYER POPULATION ANALYSIS *
                      *****************************

  NA   - Mulliken gross atomic population
  ZA   - Total nuclear charge
  QA   - Mulliken gross atomic charge
  VA   - Mayer's total valence
  BVA  - Mayer's bonded valence
  FA   - Mayer's free valence

  ATOM       NA         ZA         QA         VA         BVA        FA
  0 C      6.6901     6.0000    -0.6901     3.7599     3.7599    -0.0000
  1 C      5.3892     6.0000     0.6108     3.5139     3.5139    -0.0000
  2 H      0.7665     1.0000     0.2335     1.0405     1.0405    -0.0000
  3 H      0.7542     1.0000     0.2458     0.9950     0.9950     0.0000
  4 H      0.7545     1.0000     0.2455     0.9951     0.9951    -0.0000
  5 O      8.4190     8.0000    -0.4190     2.0035     2.0035     0.0000
  6 Cl    17.2266    17.0000    -0.2266     1.0862     1.0862    -0.0000

  Mayer bond orders larger than 0.100000
B(  0-C ,  1-C ) :   0.7902 B(  0-C ,  2-H ) :   0.9590 B(  0-C ,  3-H ) :   0.9615 
B(  0-C ,  4-H ) :   0.9615 B(  1-C ,  5-O ) :   1.8726 B(  1-C ,  6-Cl) :   0.8805 
B(  5-O ,  6-Cl) :   0.1075 

-------
TIMINGS
-------

Total SCF time: 0 days 0 hours 0 min 9 sec 

Total time                  ....       9.152 sec
Sum of individual times     ....       8.907 sec  ( 97.3%)

Fock matrix formation       ....       8.481 sec  ( 92.7%)
  XC integration            ....       0.821 sec  (  9.7% of F)
    Basis function eval.    ....       0.076 sec  (  9.3% of XC)
    Density eval.           ....       0.133 sec  ( 16.2% of XC)
    XC-Functional eval.     ....       0.030 sec  (  3.7% of XC)
    XC-Potential eval.      ....       0.296 sec  ( 36.1% of XC)
Diagonalization             ....       0.043 sec  (  0.5%)
Density matrix formation    ....       0.011 sec  (  0.1%)
Population analysis         ....       0.007 sec  (  0.1%)
Initial guess               ....       0.111 sec  (  1.2%)
Orbital Transformation      ....       0.000 sec  (  0.0%)
Orbital Orthonormalization  ....       0.000 sec  (  0.0%)
DIIS solution               ....       0.018 sec  (  0.2%)
SOSCF solution              ....       0.020 sec  (  0.2%)
Grid generation             ....       0.216 sec  (  2.4%)

-------------------------   --------------------
FINAL SINGLE POINT ENERGY      -613.447830102649
-------------------------   --------------------


                            ***************************************
                            *     ORCA property calculations      *
                            ***************************************

                                    ---------------------
                                    Active property flags
                                    ---------------------
   (+) Dipole Moment


------------------------------------------------------------------------------
                       ORCA ELECTRIC PROPERTIES CALCULATION
------------------------------------------------------------------------------

Dipole Moment Calculation                       ... on
Quadrupole Moment Calculation                   ... off
Polarizability Calculation                      ... off
GBWName                                         ... MOR01_accl.gbw
Electron density file                           ... MOR01_accl.scfp
The origin for moment calculation is the CENTER OF MASS  = (-0.152024,  0.090229 -0.000010)

-------------
DIPOLE MOMENT
-------------
                                X             Y             Z
Electronic contribution:     -5.50515       2.63405      -0.00034
Nuclear contribution   :      6.08095      -3.60915       0.00039
                        -----------------------------------------
Total Dipole Moment    :      0.57580      -0.97509       0.00005
                        -----------------------------------------
Magnitude (a.u.)       :      1.13241
Magnitude (Debye)      :      2.87836



--------------------
Rotational spectrum 
--------------------
 
Rotational constants in cm-1:     0.334975     0.160198     0.110601 
Rotational constants in MHz : 10042.310181  4802.622935  3315.727154 

 Dipole components along the rotational axes: 
x,y,z [a.u.] :    -0.470875    -1.029870     0.000060 
x,y,z [Debye]:    -1.196870    -2.617721     0.000152 

 

Timings for individual modules:

Sum of individual times         ...       10.171 sec (=   0.170 min)
GTO integral calculation        ...        0.649 sec (=   0.011 min)   6.4 %
SCF iterations                  ...        9.522 sec (=   0.159 min)  93.6 %
                             ****ORCA TERMINATED NORMALLY****
TOTAL RUN TIME: 0 days 0 hours 0 minutes 10 seconds 629 msec
