
                                 *****************
                                 * O   R   C   A *
                                 *****************

           --- An Ab Initio, DFT and Semiempirical electronic structure package ---

                  #######################################################
                  #                        -***-                        #
                  #          Department of theory and spectroscopy      #
                  #               Directorship: Frank Neese             #
                  #        Max Planck Institute fuer Kohlenforschung    #
                  #                Kaiser Wilhelm Platz 1               #
                  #                 D-45470 Muelheim/Ruhr               #
                  #                      Germany                        #
                  #                                                     #
                  #                  All rights reserved                #
                  #                        -***-                        #
                  #######################################################


                         Program Version 4.2.0 -  RELEASE  -


 With contributions from (in alphabetic order):
   Daniel Aravena         : Magnetic Suceptibility
   Michael Atanasov       : Ab Initio Ligand Field Theory (pilot matlab implementation)
   Alexander A. Auer      : GIAO ZORA, VPT2
   Ute Becker             : Parallelization
   Giovanni Bistoni       : ED, misc. LED, open-shell LED, HFLED
   Martin Brehm           : Molecular dynamics
   Dmytro Bykov           : SCF Hessian
   Vijay G. Chilkuri      : MRCI spin determinant printing, contributions to CSF-ICE
   Dipayan Datta          : RHF DLPNO-CCSD density
   Achintya Kumar Dutta   : EOM-CC, STEOM-CC
   Dmitry Ganyushin       : Spin-Orbit,Spin-Spin,Magnetic field MRCI
   Miquel Garcia          : C-PCM Hessian, Gaussian charge scheme
   Yang Guo               : DLPNO-NEVPT2, CIM, IAO-localization
   Andreas Hansen         : Spin unrestricted coupled pair/coupled cluster methods
   Benjamin Helmich-Paris : CASSCF linear response (MC-RPA)
   Lee Huntington         : MR-EOM, pCC
   Robert Izsak           : Overlap fitted RIJCOSX, COSX-SCS-MP3, EOM
   Christian Kollmar      : KDIIS, OOCD, Brueckner-CCSD(T), CCSD density
   Simone Kossmann        : Meta GGA functionals, TD-DFT gradient, OOMP2, MP2 Hessian
   Martin Krupicka        : AUTO-CI
   Lucas Lang             : DCDCAS
   Dagmar Lenk            : GEPOL surface, SMD
   Dimitrios Liakos       : Extrapolation schemes; Compound Job, initial MDCI parallelization
   Dimitrios Manganas     : Further ROCIS development; embedding schemes
   Dimitrios Pantazis     : SARC Basis sets
   Taras Petrenko         : DFT Hessian,TD-DFT gradient, ASA, ECA, R-Raman, ABS, FL, XAS/XES, NRVS
   Peter Pinski           : DLPNO-MP2, DLPNO-MP2 Gradient
   Christoph Reimann      : Effective Core Potentials
   Marius Retegan         : Local ZFS, SOC
   Christoph Riplinger    : Optimizer, TS searches, QM/MM, DLPNO-CCSD(T), (RO)-DLPNO pert. Triples
   Tobias Risthaus        : Range-separated hybrids, TD-DFT gradient, RPA, STAB
   Michael Roemelt        : Original ROCIS implementation
   Masaaki Saitow         : Open-shell DLPNO-CCSD energy and density
   Barbara Sandhoefer     : DKH picture change effects
   Avijit Sen             : IP-ROCIS
   Kantharuban Sivalingam : CASSCF convergence, NEVPT2, FIC-MRCI
   Bernardo de Souza      : ESD, SOC TD-DFT
   Georgi Stoychev        : AutoAux, RI-MP2 NMR
   Willem Van den Heuvel  : Paramagnetic NMR
   Boris Wezisla          : Elementary symmetry handling
   Frank Wennmohs         : Technical directorship


 We gratefully acknowledge several colleagues who have allowed us to
 interface, adapt or use parts of their codes:
   Stefan Grimme, W. Hujo, H. Kruse,             : VdW corrections, initial TS optimization,
                  C. Bannwarth                     DFT functionals, gCP, sTDA/sTD-DF
   Ed Valeev, F. Pavosevic, A. Kumar             : LibInt (2-el integral package), F12 methods
   Garnet Chan, S. Sharma, J. Yang, R. Olivares  : DMRG
   Ulf Ekstrom                                   : XCFun DFT Library
   Mihaly Kallay                                 : mrcc  (arbitrary order and MRCC methods)
   Andreas Klamt, Michael Diedenhofen            : otool_cosmo (COSMO solvation model)
   Jiri Pittner, Ondrej Demel                    : Mk-CCSD
   Frank Weinhold                                : gennbo (NPA and NBO analysis)
   Christopher J. Cramer and Donald G. Truhlar   : smd solvation model
   Lars Goerigk                                  : TD-DFT with DH, B97 family of functionals
   V. Asgeirsson, H. Jonsson                     : NEB implementation
   FAccTs GmbH                                   : IRC, NEB, NEB-TS, Multilevel, MM, QM/MM, CI optimization
   S Lehtola, MJT Oliveira, MAL Marques          : LibXC Library


 Your calculation uses the libint2 library for the computation of 2-el integrals
 For citations please refer to: http://libint.valeyev.net

 Your ORCA version has been built with support for libXC version: 4.2.3
 For citations please refer to: https://tddft.org/programs/libxc/

 This ORCA versions uses:
   CBLAS   interface :  Fast vector & matrix operations
   LAPACKE interface :  Fast linear algebra routines
   SCALAPACK package :  Parallel linear algebra routines


Your calculation utilizes the DFT-NL dispersion correction.
Cite in your paper:
Vydrov, O. A.; Van Voorhis, T. J. Chem. Phys. 2010, 133, 244103
Hujo, W.; Grimme, S. J. Chem. Theory Comput. 2011, 7, 3866 
   

----- Orbital basis set information -----
Your calculation utilizes the basis: def2-TZVPPD
   F. Weigend and R. Ahlrichs, Phys. Chem. Chem. Phys. 7, 3297 (2005).
   D. Rappoport and F. Furche, J. Chem. Phys. 133 134105 (2010).

----- AuxJK basis set information -----
Your calculation utilizes the auxiliary basis: def2/JK
   H-Ba, Hf-Rn: F. Weigend, J. Comput. Chem. 29, 167 (2008).

cite the ECPs for Pd [Def2-ECP], I  [Def2-ECP] as follows:
Ce-Yb(ecp-28): M. Dolg, H. Stoll, H.Preuss, J. Chem. Phys., 1989, 90, 1730-1734.
Y-Cd(ecp-28), Hf-Hg(ecp-46): D. Andrae,U. Haeussermann, M. Dolg, H. Stoll, H. Preuss, Theor. Chim. Acta, 1990, 77, 123-141.
In-Sb(ecp-28), Tl-Bi(ecp-46): B. Metz, H. Stoll, M. Dolg, J. Chem. Phys., 2000, 113, 2563-2569.
Te-Xe(ecp-28), Po-Rn(ecp-46): K. A. Peterson, D. Figgen, E. Goll, H. Stoll, M. Dolg, J. Chem. Phys., 2003, 119, 11113-11123.
Rb(ecp-28), Cs(ecp-46): T. Leininger, A. Nicklass, W. Kuechle, H. Stoll, M. Dolg, A. Bergner, Chem. Phys. Lett., 1996, 255, 274-280.
Sr(ecp-28), Ba(ecp-46): M. Kaupp, P. V. Schleyer, H. Stoll and H. Preuss, J. Chem. Phys., 1991, 94, 1360-1366.
La(ecp-46): M. Dolg, H. Stoll, A. Savin, H. Preuss, Theor. Chim. Acta, 1989, 75, 173-194.
Lu(ecp-28): X. Cao, M. Dolg, J. Chem. Phys., 2001, 115, 7348-7355.

ECP parameters for Pd [Def2-ECP], I  [Def2-ECP] have been obtained from:
TURBOMOLE (7.0.2)

================================================================================
                                        WARNINGS
                       Please study these warnings very carefully!
================================================================================


INFO   : the flag for use of LIBINT has been found!

================================================================================
                                       INPUT FILE
================================================================================
NAME = MOR11_ed11.in
|  1> #
|  2> # MOR11_ed11 wB97M-V/Def2-TZVPPD
|  3> #
|  4> ! wb97m-v def2-tzvppd def2/jk grid4 nofinalgrid
|  5> 
|  6> *xyz 0 1
|  7> C       -0.215143    2.474912    0.000943 
|  8> C        0.405007    3.719049    0.001069 
|  9> C        1.797844    3.776033    0.000678 
| 10> C        2.518886    2.587780    0.000166 
| 11> H       -1.296303    2.357179    0.001183 
| 12> H       -0.198474    4.620568    0.001502 
| 13> H        2.316345    4.729851    0.000789 
| 14> H        3.602578    2.611029   -0.000041 
| 15> N        0.477795    1.324684    0.000439 
| 16> C        1.835277    1.367244    0.000057 
| 17> C        2.509992    0.059887   -0.000357 
| 18> N        1.694840   -1.036421    0.000876 
| 19> C        2.257001   -2.260308    0.000535 
| 20> C        4.472096   -1.347919   -0.002398 
| 21> C        3.629983   -2.459360   -0.001050 
| 22> H        1.562821   -3.092687    0.001515 
| 23> H        4.023772   -3.470102   -0.001337 
| 24> C        3.900751   -0.081941   -0.002040 
| 25> H        4.532932    0.798314   -0.003223 
| 26> H        5.551118   -1.464051   -0.003853 
| 27> Pd      -0.336917   -0.654572    0.001071 
| 28> C       -0.858975   -2.626404    0.002691 
| 29> H       -0.413078   -3.060930    0.907026 
| 30> H       -0.415091   -3.062278   -0.901950 
| 31> H       -1.933716   -2.807010    0.004117 
| 32> I       -2.840745   -0.024929   -0.001244 
| 33> *
| 34> 
| 35> %maxcore 5000
| 36> 
| 37> %pal
| 38> nprocs = 24
| 39> end
| 40> 
| 41> 
| 42>                          ****END OF INPUT****
================================================================================

                       ****************************
                       * Single Point Calculation *
                       ****************************

---------------------------------
CARTESIAN COORDINATES (ANGSTROEM)
---------------------------------
  C     -0.215143    2.474912    0.000943
  C      0.405007    3.719049    0.001069
  C      1.797844    3.776033    0.000678
  C      2.518886    2.587780    0.000166
  H     -1.296303    2.357179    0.001183
  H     -0.198474    4.620568    0.001502
  H      2.316345    4.729851    0.000789
  H      3.602578    2.611029   -0.000041
  N      0.477795    1.324684    0.000439
  C      1.835277    1.367244    0.000057
  C      2.509992    0.059887   -0.000357
  N      1.694840   -1.036421    0.000876
  C      2.257001   -2.260308    0.000535
  C      4.472096   -1.347919   -0.002398
  C      3.629983   -2.459360   -0.001050
  H      1.562821   -3.092687    0.001515
  H      4.023772   -3.470102   -0.001337
  C      3.900751   -0.081941   -0.002040
  H      4.532932    0.798314   -0.003223
  H      5.551118   -1.464051   -0.003853
  Pd    -0.336917   -0.654572    0.001071
  C     -0.858975   -2.626404    0.002691
  H     -0.413078   -3.060930    0.907026
  H     -0.415091   -3.062278   -0.901950
  H     -1.933716   -2.807010    0.004117
  I     -2.840745   -0.024929   -0.001244

----------------------------
CARTESIAN COORDINATES (A.U.)
----------------------------
  NO LB      ZA    FRAG     MASS         X           Y           Z
   0 C     6.0000    0    12.011   -0.406561    4.676906    0.001782
   1 C     6.0000    0    12.011    0.765352    7.027984    0.002020
   2 C     6.0000    0    12.011    3.397433    7.135668    0.001281
   3 C     6.0000    0    12.011    4.760005    4.890195    0.000314
   4 H     1.0000    0     1.008   -2.449658    4.454423    0.002236
   5 H     1.0000    0     1.008   -0.375062    8.731608    0.002838
   6 H     1.0000    0     1.008    4.377258    8.938123    0.001491
   7 H     1.0000    0     1.008    6.807886    4.934130   -0.000077
   8 N     7.0000    0    14.007    0.902902    2.503290    0.000830
   9 C     6.0000    0    12.011    3.468171    2.583717    0.000108
  10 C     6.0000    0    12.011    4.743197    0.113170   -0.000675
  11 N     7.0000    0    14.007    3.202783   -1.958552    0.001655
  12 C     6.0000    0    12.011    4.265114   -4.271363    0.001011
  13 C     6.0000    0    12.011    8.451037   -2.547198   -0.004532
  14 C     6.0000    0    12.011    6.859674   -4.647517   -0.001984
  15 H     1.0000    0     1.008    2.953304   -5.844331    0.002863
  16 H     1.0000    0     1.008    7.603827   -6.557542   -0.002527
  17 C     6.0000    0    12.011    7.371351   -0.154846   -0.003855
  18 H     1.0000    0     1.008    8.566000    1.508595   -0.006091
  19 H     1.0000    0     1.008   10.490093   -2.766655   -0.007281
  20 Pd   18.0000*   0   106.400   -0.636681   -1.236962    0.002024
  21 C     6.0000    0    12.011   -1.623228   -4.963184    0.005085
  22 H     1.0000    0     1.008   -0.780604   -5.784319    1.714031
  23 H     1.0000    0     1.008   -0.784408   -5.786867   -1.704438
  24 H     1.0000    0     1.008   -3.654194   -5.304480    0.007780
  25 I    25.0000*   0   126.900   -5.368230   -0.047109   -0.002351
* core charge reduced due to ECP

--------------------------------
INTERNAL COORDINATES (ANGSTROEM)
--------------------------------
 C      0   0   0     0.000000000000     0.00000000     0.00000000
 C      1   0   0     1.390130538167     0.00000000     0.00000000
 C      2   1   0     1.394002237339   118.83711176     0.00000000
 C      3   2   1     1.389908996991   118.90694601     0.00000000
 H      1   2   3     1.087551406826   122.70906397   180.00284307
 H      2   1   3     1.084862208859   119.70713808   180.00216069
 H      3   2   1     1.085639017559   120.87154500   180.00165553
 H      4   3   2     1.083941377434   120.02072603   180.00626221
 N      1   2   3     1.342828275635   122.43942809     0.00000000
 C      9   1   2     1.358149063928   119.27049038     0.00000000
 C     10   9   1     1.471197752877   115.50208954   179.99455671
 N     11  10   9     1.366149894505   116.06974155   359.94470710
 C     12  11  10     1.346820142028   118.69711968   179.99840289
 C     13  12  11     2.395643577170    92.28391119     0.00000000
 C     13  12  11     1.387336939338   122.91960657     0.00000000
 H     13  12  11     1.083854986814   115.50237785   180.00257567
 H     15  13  12     1.084743863524   119.53522378   180.00543293
 C     14  13  12     1.388933235859    88.09655549     0.00000000
 H     18  14  13     1.083744933679   120.02483225   180.01107621
 H     14  13  12     1.085254456306   151.47051943   180.02007691
 Pd    12  11  10     2.067328034898   115.98835512     0.06244482
 C     21  12  11     2.039771706831    94.18524209   179.99033678
 H     22  21  12     1.097933864816   106.21819733    59.04752517
 H     22  21  12     1.097904589759   106.23938293   300.85984525
 H     22  21  12     1.089811349635   114.36850026   179.94039775
 I     21  12  11     2.581784328765   176.52795742     0.88253711

---------------------------
INTERNAL COORDINATES (A.U.)
---------------------------
 C      0   0   0     0.000000000000     0.00000000     0.00000000
 C      1   0   0     2.626966007537     0.00000000     0.00000000
 C      2   1   0     2.634282458644   118.83711176     0.00000000
 C      3   2   1     2.626547355386   118.90694601     0.00000000
 H      1   2   3     2.055174315462   122.70906397   180.00284307
 H      2   1   3     2.050092467785   119.70713808   180.00216069
 H      3   2   1     2.051560423485   120.87154500   180.00165553
 H      4   3   2     2.048352348576   120.02072603   180.00626221
 N      1   2   3     2.537577685835   122.43942809     0.00000000
 C      9   1   2     2.566529779865   119.27049038     0.00000000
 C     10   9   1     2.780160841778   115.50208954   179.99455671
 N     11  10   9     2.581649158501   116.06974155   359.94470710
 C     12  11  10     2.545121220081   118.69711968   179.99840289
 C     13  12  11     4.527110275338    92.28391119     0.00000000
 C     13  12  11     2.621686870822   122.91960657     0.00000000
 H     13  12  11     2.048189093963   115.50237785   180.00257567
 H     15  13  12     2.049868827513   119.53522378   180.00543293
 C     14  13  12     2.624703434074    88.09655549     0.00000000
 H     18  14  13     2.047981123678   120.02483225   180.01107621
 H     14  13  12     2.050833708037   151.47051943   180.02007691
 Pd    12  11  10     3.906683814935   115.98835512     0.06244482
 C     21  12  11     3.854609901632    94.18524209   179.99033678
 H     22  21  12     2.074794317660   106.21819733    59.04752517
 H     22  21  12     2.074738995819   106.23938293   300.85984525
 H     22  21  12     2.059444988449   114.36850026   179.94039775
 I     21  12  11     4.878865318216   176.52795742     0.88253711

---------------------
BASIS SET INFORMATION
---------------------
There are 5 groups of distinct atoms

 Group   1 Type C   : 12s6p3d1f contracted to 6s3p3d1f pattern {621111/411/111/1}
 Group   2 Type H   : 5s3p1d contracted to 3s3p1d pattern {311/111/1}
 Group   3 Type N   : 12s6p3d1f contracted to 6s3p3d1f pattern {621111/411/111/1}
 Group   4 Type Pd  : 7s7p6d2f1g contracted to 6s4p3d2f1g pattern {211111/4111/411/11/1}
 Group   5 Type I   : 12s11p9d2f contracted to 7s6p4d2f pattern {5211111/341111/6111/11}

Atom   0C    basis set group =>   1
Atom   1C    basis set group =>   1
Atom   2C    basis set group =>   1
Atom   3C    basis set group =>   1
Atom   4H    basis set group =>   2
Atom   5H    basis set group =>   2
Atom   6H    basis set group =>   2
Atom   7H    basis set group =>   2
Atom   8N    basis set group =>   3
Atom   9C    basis set group =>   1
Atom  10C    basis set group =>   1
Atom  11N    basis set group =>   3
Atom  12C    basis set group =>   1
Atom  13C    basis set group =>   1
Atom  14C    basis set group =>   1
Atom  15H    basis set group =>   2
Atom  16H    basis set group =>   2
Atom  17C    basis set group =>   1
Atom  18H    basis set group =>   2
Atom  19H    basis set group =>   2
Atom  20Pd   basis set group =>   4
Atom  21C    basis set group =>   1
Atom  22H    basis set group =>   2
Atom  23H    basis set group =>   2
Atom  24H    basis set group =>   2
Atom  25I    basis set group =>   5
----------------------------------
AUXILIARY/JK BASIS SET INFORMATION
----------------------------------
There are 5 groups of distinct atoms

 Group   1 Type C   : 14s10p6d2f1g contracted to 10s8p5d1f1g pattern {5111111111/31111111/21111/2/1}
 Group   2 Type H   : 4s2p2d contracted to 2s2p2d pattern {31/11/11}
 Group   3 Type N   : 14s10p6d2f1g contracted to 10s8p4d2f1g pattern {5111111111/31111111/3111/11/1}
 Group   4 Type Pd  : 13s12p10d9f6g3h2i contracted to 11s10p9d8f6g3h2i pattern {31111111111/3111111111/211111111/21111111/111111/111/11}
 Group   5 Type I   : 13s12p11d8f6g3h contracted to 11s10p10d7f5g3h pattern {31111111111/3111111111/2111111111/2111111/21111/111}

Atom   0C    basis set group =>   1
Atom   1C    basis set group =>   1
Atom   2C    basis set group =>   1
Atom   3C    basis set group =>   1
Atom   4H    basis set group =>   2
Atom   5H    basis set group =>   2
Atom   6H    basis set group =>   2
Atom   7H    basis set group =>   2
Atom   8N    basis set group =>   3
Atom   9C    basis set group =>   1
Atom  10C    basis set group =>   1
Atom  11N    basis set group =>   3
Atom  12C    basis set group =>   1
Atom  13C    basis set group =>   1
Atom  14C    basis set group =>   1
Atom  15H    basis set group =>   2
Atom  16H    basis set group =>   2
Atom  17C    basis set group =>   1
Atom  18H    basis set group =>   2
Atom  19H    basis set group =>   2
Atom  20Pd   basis set group =>   4
Atom  21C    basis set group =>   1
Atom  22H    basis set group =>   2
Atom  23H    basis set group =>   2
Atom  24H    basis set group =>   2
Atom  25I    basis set group =>   5
-------------------------
ECP PARAMETER INFORMATION
-------------------------

 Group 1, Type Pd ECP Def2-ECP (replacing 28 core electrons, lmax=3)
 Group 2, Type I  ECP Def2-ECP (replacing 28 core electrons, lmax=3)

Atom  20Pd   ECP group =>   1
Atom  25I    ECP group =>   2



           ************************************************************
           *        Program running with 24 parallel MPI-processes    *
           *              working on a common directory               *
           ************************************************************
------------------------------------------------------------------------------
                           ORCA GTO INTEGRAL CALCULATION
------------------------------------------------------------------------------

                         BASIS SET STATISTICS AND STARTUP INFO

 # of primitive gaussian shells          ...  442
 # of primitive gaussian functions       ... 1070
 # of contracted shells                  ...  281
 # of contracted basis functions         ...  783
 Highest angular momentum                ...    4
 Maximum contraction depth               ...    6
 Integral package used                   ... LIBINT
 Integral threshhold            Thresh   ...  1.000e-10
 Primitive cut-off              TCut     ...  1.000e-11


------------------------------ INTEGRAL EVALUATION ----------------------------


 * One electron integrals 

   ECP integrals                         ... done
 Pre-screening matrix                    ... done
 Shell pair data                         ... done (   0.009 sec)



           ************************************************************
           *        Program running with 24 parallel MPI-processes    *
           *              working on a common directory               *
           ************************************************************
-------------------------------------------------------------------------------
                                 ORCA SCF
-------------------------------------------------------------------------------

------------
SCF SETTINGS
------------
Hamiltonian:
 Density Functional     Method          .... DFT(GTOs)
 Exchange Functional    Exchange        .... WB97M-V
 Correlation Functional Correlation     .... WB97M-V
 Gradients option       PostSCFGGA      .... off
 Hybrid DFT is turned on
   Fraction HF Exchange ScalHFX         ....  0.150000
   Scaling of DF-GGA-X  ScalDFX         ....  0.000000
   Scaling of DF-GGA-C  ScalDFC         ....  1.000000
   Scaling of DF-LDA-C  ScalLDAC        ....  1.000000
   Perturbative correction              ....  0.000000
   Density functional embedding theory  .... OFF
 Long-range corrected/Screened/Range-Separated Hybrid DFT is turned on
   Amount of maximum screened exact exchange              ....  0.850000
   Range separation parameter mu (erf(mu*r12)/r12)        ....  0.300000
   NL short-range parameter             ....  6.000000
   NL long-range parameter              ....  0.010000


General Settings:
 Integral files         IntName         .... MOR11_ed11
 Hartree-Fock type      HFTyp           .... RHF
 Total Charge           Charge          ....    0
 Multiplicity           Mult            ....    1
 Number of Electrons    NEL             ....  134
 Basis Dimension        Dim             ....  783
 Nuclear Repulsion      ENuc            ....   1306.7874881661 Eh

Convergence Acceleration:
 DIIS                   CNVDIIS         .... on
   Start iteration      DIISMaxIt       ....    12
   Startup error        DIISStart       ....  0.200000
   # of expansion vecs  DIISMaxEq       ....     5
   Bias factor          DIISBfac        ....   1.050
   Max. coefficient     DIISMaxC        ....  10.000
 Newton-Raphson         CNVNR           .... off
 SOSCF                  CNVSOSCF        .... off
 Level Shifting         CNVShift        .... on
   Level shift para.    LevelShift      ....    0.2500
   Turn off err/grad.   ShiftErr        ....    0.0010
 Zerner damping         CNVZerner       .... off
 Static damping         CNVDamp         .... on
   Fraction old density DampFac         ....    0.7000
   Max. Damping (<1)    DampMax         ....    0.9800
   Min. Damping (>=0)   DampMin         ....    0.0000
   Turn off err/grad.   DampErr         ....    0.1000
 Fernandez-Rico         CNVRico         .... off

SCF Procedure:
 Maximum # iterations   MaxIter         ....   125
 SCF integral mode      SCFMode         .... Direct
   Integral package                     .... LIBINT
 Reset frequency        DirectResetFreq ....    20
 Integral Threshold     Thresh          ....  1.000e-10 Eh
 Primitive CutOff       TCut            ....  1.000e-11 Eh

Convergence Tolerance:
 Convergence Check Mode ConvCheckMode   .... Total+1el-Energy
 Convergence forced     ConvForced      .... 0
 Energy Change          TolE            ....  1.000e-06 Eh
 1-El. energy change                    ....  1.000e-03 Eh
 DIIS Error             TolErr          ....  1.000e-06


Diagonalization of the overlap matrix:
Smallest eigenvalue                        ... 1.861e-07
Time for diagonalization                   ...    0.100 sec
Threshold for overlap eigenvalues          ... 1.000e-08
Number of eigenvalues below threshold      ... 0
Time for construction of square roots      ...    0.083 sec
Total time needed                          ...    0.185 sec

-------------------
DFT GRID GENERATION
-------------------

General Integration Accuracy     IntAcc      ...  4.670
Radial Grid Type                 RadialGrid  ... Gauss-Chebyshev
Angular Grid (max. acc.)         AngularGrid ... Lebedev-302
Angular grid pruning method      GridPruning ... 3 (G Style)
Weight generation scheme         WeightScheme... Becke
Basis function cutoff            BFCut       ...    1.0000e-10
Integration weight cutoff        WCut        ...    1.0000e-14
Grids for H and He will be reduced by one unit

# of grid points (after initial pruning)     ... 139514 (   0.0 sec)
# of grid points (after weights+screening)   ... 124806 (   0.1 sec)
nearest neighbour list constructed           ...    0.0 sec
Grid point re-assignment to atoms done       ...    0.0 sec
Grid point division into batches done        ...    0.5 sec
Reduced shell lists constructed in    0.6 sec

Total number of grid points                  ...   124806
Total number of batches                      ...     1963
Average number of points per batch           ...       63
Average number of grid points per atom       ...     4800
Average number of shells per batch           ...   156.45 (55.67%)
Average number of basis functions per batch  ...   433.31 (55.34%)
Average number of large shells per batch     ...   117.80 (75.29%)
Average number of large basis fcns per batch ...   328.42 (75.79%)
Maximum spatial batch extension              ...   3.57,  3.80, 16.24 au
Average spatial batch extension              ...   0.06,  0.06,  0.09 au

Time for grid setup =    0.712 sec

------------------------------
INITIAL GUESS: MODEL POTENTIAL
------------------------------
Loading Hartree-Fock densities                     ... done
  calling /sw/apps/orca/orca_4_2_0_linux_x86-64_openmpi314/orca MOR11_ed11_atom46.inp > MOR11_ed11_atom46.out in order to generate an atomic fitting density for atom 20 (Pd with ECP) on-the-fly... 
    atom 20 (Pd), assumed electronic state with S=3: 1s2 2s2 2p6 3s2 3p6 4s2 3d10 4p6 5s2 4d8           ... done
  calling /sw/apps/orca/orca_4_2_0_linux_x86-64_openmpi314/orca MOR11_ed11_atom53.inp > MOR11_ed11_atom53.out in order to generate an atomic fitting density for atom 25 (I  with ECP) on-the-fly... 
    atom 25 (I ), assumed electronic state with S=2: 1s2 2s2 2p6 3s2 3p6 4s2 3d10 4p6 5s2 4d10 5p5           ... done
Calculating cut-offs                               ... done
Setting up the integral package                    ... done
Initializing the effective Hamiltonian             ... done
Starting the Coulomb interaction                   ... done (   0.1 sec)
Reading the grid                                   ... done
Mapping shells                                     ... done
Starting the XC term evaluation                    ... done (   0.3 sec)
  promolecular density results
     # of electrons  =    189.988200233
     EX              =   -384.325607796
     EC              =     -8.356266142
     EX+EC           =   -392.681873937
Transforming the Hamiltonian                       ... done (   0.1 sec)
Diagonalizing the Hamiltonian                      ... done (   0.1 sec)
Back transforming the eigenvectors                 ... done (   0.0 sec)
Now organizing SCF variables                       ... done
                      ------------------
                      INITIAL GUESS DONE (   3.4 sec)
                      ------------------
--------------
SCF ITERATIONS
--------------
ITER       Energy         Delta-E        Max-DP      RMS-DP      [F,P]     Damp
               ***  Starting incremental Fock matrix formation  ***
  0   -684.1705538614   0.000000000000150.29040876  0.43339534  6.8430414 0.7000
  1   -858.9538744527-174.783320591354165.52802978  0.42656491  2.6627883 0.7000
  2   -889.2809840170 -30.32710956426199.74385697  0.26983127  0.8263689 0.7000
  3   -910.1839156138 -20.90293159676397.91068993  0.25988342  0.6477379 0.7000
  4   -925.1284672400 -14.94455162626775.45793927  0.20113073  0.4782930 0.7000
  5   -935.7711144630 -10.64264722297453.89238241  0.14430585  0.3431469 0.7000
  6   -943.3268362030  -7.55572173998037.55527459  0.10097619  0.2428290 0.7000
                               ***Turning on DIIS***
  7   -948.6770142203  -5.35017801730626.02656565  0.07018330  0.1887221 0.7000
  8   -952.4545384938  -3.77752427355418.05258044  0.04891291  0.1460106 0.7000
  9   -955.1160898630  -2.66155136915212.66509925  0.03441530  0.1027180 0.7000
 10   -956.9882326446  -1.87214278158829.91938513  0.08120811  0.0705342 0.0000
 11   -961.3890926687  -4.400860024114 0.24725990  0.00101130  0.0053780 0.0000
 12   -961.3896926028  -0.000599934085 0.10042961  0.00049164  0.0031251 0.0000
 13   -961.3899646611  -0.000272058360 0.17571287  0.00070626  0.0023224 0.0000
 14   -961.3900520491  -0.000087387997 0.14663248  0.00077976  0.0008736 0.0000
 15   -961.3900895419  -0.000037492751 0.32636791  0.00094805  0.0007343 0.0000
 16   -961.3900920938  -0.000002551950 0.50276505  0.00169439  0.0006956 0.0000
 17   -961.3900935915  -0.000001497705 0.27874003  0.00114432  0.0001712 0.0000
                 **** Energy Check signals convergence ****

               *****************************************************
               *                     SUCCESS                       *
               *           SCF CONVERGED AFTER  18 CYCLES          *
               *****************************************************


Setting up the DFT-NL grid :

General Integration Accuracy     IntAcc      ...  4.340
Radial Grid Type                 RadialGrid  ... Gauss-Chebyshev
Angular Grid (max. acc.)         AngularGrid ... Lebedev-110
Angular grid pruning method      GridPruning ... 3 (G Style)
Weight generation scheme         WeightScheme... Becke
Basis function cutoff            BFCut       ...    1.0000e-10
Integration weight cutoff        WCut        ...    1.0000e-14
Grids for H and He will be reduced by one unit

# of grid points (after initial pruning)     ...  36880 (   0.0 sec)
# of grid points (after weights+screening)   ...  33566 (   0.0 sec)
nearest neighbour list constructed           ...    0.0 sec
Grid point re-assignment to atoms done       ...    0.0 sec
Grid point division into batches done        ...    0.0 sec
Reduced shell lists constructed in    0.1 sec

Total number of grid points                  ...    33566
Total number of batches                      ...      538
Average number of points per batch           ...       62
Average number of grid points per atom       ...     1291
Average number of shells per batch           ...   160.79 (57.22%)
Average number of basis functions per batch  ...   449.21 (57.37%)
Average number of large shells per batch     ...   124.17 (77.22%)
Average number of large basis fcns per batch ...   350.67 (78.06%)
Maximum spatial batch extension              ...   2.98,  3.39, 18.99 au
Average spatial batch extension              ...   0.08,  0.08,  0.16 au

Final grid set up in    0.1 sec

-------------------------------------------------------------------------------
                         DFT-NL dispersion correction                          
-------------------------------------------------------------------------------

SC Energy -961.390093831 
NL    Energy 0.490782297 
SC+NL Energy -960.899311534 
NL done in    0.4 sec
-------------------------------------------------------------------------------

----------------
TOTAL SCF ENERGY
----------------

Total Energy       :         -960.89931153 Eh          -26147.39957 eV

Components:
Nuclear Repulsion  :         1306.78748817 Eh           35559.49536 eV
Electronic Energy  :        -2267.68679970 Eh          -61706.89494 eV
One Electron Energy:        -4067.20144722 Eh         -110674.17795 eV
Two Electron Energy:         1799.51464752 Eh           48967.28301 eV

Virial components:
Potential Energy   :        -1656.14350263 Eh          -45065.95582 eV
Kinetic Energy     :          695.24419110 Eh           18918.55624 eV
Virial Ratio       :            2.38210333


DFT components:
N(Alpha)           :       66.999989124802 electrons
N(Beta)            :       66.999989124802 electrons
N(Total)           :      133.999978249604 electrons
E(X)               :      -74.461052295430 Eh       
E(C)               :       -4.538908323415 Eh       
NL Energy, E(C,NL) :        0.490782296914 Eh       
E(XC)              :      -78.509178321931 Eh       
DFET-embed. en.    :        0.000000000000 Eh       

---------------
SCF CONVERGENCE
---------------

  Last Energy change         ...   -2.3903e-07  Tolerance :   1.0000e-06
  Last MAX-Density change    ...    4.7190e-01  Tolerance :   1.0000e-05
  Last RMS-Density change    ...    1.5562e-03  Tolerance :   1.0000e-06
  Last DIIS Error            ...    6.6426e-05  Tolerance :   1.0000e-06

             **** THE GBW FILE WAS UPDATED (MOR11_ed11.gbw) ****
             **** DENSITY FILE WAS UPDATED (MOR11_ed11.scfp) ****
             **** ENERGY FILE WAS UPDATED (MOR11_ed11.en.tmp) ****
             **** THE GBW FILE WAS UPDATED (MOR11_ed11.gbw) ****
             **** DENSITY FILE WAS UPDATED (MOR11_ed11.scfp) ****
----------------
ORBITAL ENERGIES
----------------

  NO   OCC          E(Eh)            E(eV) 
   0   2.0000     -14.583585      -396.8395 
   1   2.0000     -14.566471      -396.3738 
   2   2.0000     -10.445204      -284.2284 
   3   2.0000     -10.438712      -284.0518 
   4   2.0000     -10.425587      -283.6946 
   5   2.0000     -10.413184      -283.3571 
   6   2.0000     -10.410630      -283.2876 
   7   2.0000     -10.403890      -283.1043 
   8   2.0000     -10.403265      -283.0872 
   9   2.0000     -10.398338      -282.9532 
  10   2.0000     -10.397624      -282.9337 
  11   2.0000     -10.389567      -282.7145 
  12   2.0000     -10.305536      -280.4279 
  13   2.0000      -6.931012      -188.6024 
  14   2.0000      -4.936480      -134.3284 
  15   2.0000      -4.931243      -134.1859 
  16   2.0000      -4.930989      -134.1790 
  17   2.0000      -3.585183       -97.5578 
  18   2.0000      -2.268262       -61.7226 
  19   2.0000      -2.265294       -61.6418 
  20   2.0000      -2.239857       -60.9496 
  21   2.0000      -1.956102       -53.2282 
  22   2.0000      -1.954223       -53.1771 
  23   2.0000      -1.954137       -53.1748 
  24   2.0000      -1.949657       -53.0529 
  25   2.0000      -1.949636       -53.0523 
  26   2.0000      -1.135234       -30.8913 
  27   2.0000      -1.107210       -30.1287 
  28   2.0000      -0.978156       -26.6170 
  29   2.0000      -0.966389       -26.2968 
  30   2.0000      -0.963864       -26.2281 
  31   2.0000      -0.905770       -24.6473 
  32   2.0000      -0.818426       -22.2705 
  33   2.0000      -0.809306       -22.0223 
  34   2.0000      -0.774030       -21.0624 
  35   2.0000      -0.765556       -20.8318 
  36   2.0000      -0.760007       -20.6808 
  37   2.0000      -0.728142       -19.8137 
  38   2.0000      -0.697551       -18.9813 
  39   2.0000      -0.654819       -17.8185 
  40   2.0000      -0.652607       -17.7583 
  41   2.0000      -0.629712       -17.1353 
  42   2.0000      -0.612645       -16.6709 
  43   2.0000      -0.588139       -16.0041 
  44   2.0000      -0.585573       -15.9343 
  45   2.0000      -0.576329       -15.6827 
  46   2.0000      -0.569015       -15.4837 
  47   2.0000      -0.555919       -15.1273 
  48   2.0000      -0.544972       -14.8294 
  49   2.0000      -0.516569       -14.0566 
  50   2.0000      -0.503243       -13.6939 
  51   2.0000      -0.481357       -13.0984 
  52   2.0000      -0.480530       -13.0759 
  53   2.0000      -0.469016       -12.7626 
  54   2.0000      -0.464919       -12.6511 
  55   2.0000      -0.444335       -12.0910 
  56   2.0000      -0.429175       -11.6784 
  57   2.0000      -0.424404       -11.5486 
  58   2.0000      -0.374931       -10.2024 
  59   2.0000      -0.366191        -9.9646 
  60   2.0000      -0.359756        -9.7895 
  61   2.0000      -0.359408        -9.7800 
  62   2.0000      -0.342728        -9.3261 
  63   2.0000      -0.341901        -9.3036 
  64   2.0000      -0.311968        -8.4891 
  65   2.0000      -0.283689        -7.7196 
  66   2.0000      -0.281357        -7.6561 
  67   0.0000      -0.034311        -0.9336 
  68   0.0000       0.000490         0.0133 
  69   0.0000       0.011993         0.3263 
  70   0.0000       0.017534         0.4771 
  71   0.0000       0.025329         0.6892 
  72   0.0000       0.036114         0.9827 
  73   0.0000       0.038770         1.0550 
  74   0.0000       0.048635         1.3234 
  75   0.0000       0.053207         1.4478 
  76   0.0000       0.054460         1.4819 
  77   0.0000       0.059745         1.6257 
  78   0.0000       0.063464         1.7270 
  79   0.0000       0.064671         1.7598 
  80   0.0000       0.073993         2.0134 
  81   0.0000       0.083016         2.2590 
  82   0.0000       0.084490         2.2991 
  83   0.0000       0.091211         2.4820 
  84   0.0000       0.099332         2.7030 
  85   0.0000       0.118389         3.2215 
  86   0.0000       0.127469         3.4686 
  87   0.0000       0.128911         3.5078 
  88   0.0000       0.130135         3.5412 
  89   0.0000       0.132431         3.6036 
  90   0.0000       0.140537         3.8242 
  91   0.0000       0.148005         4.0274 
  92   0.0000       0.148283         4.0350 
  93   0.0000       0.157596         4.2884 
  94   0.0000       0.157753         4.2927 
  95   0.0000       0.168024         4.5722 
  96   0.0000       0.176016         4.7896 
  97   0.0000       0.180676         4.9164 
  98   0.0000       0.181764         4.9461 
  99   0.0000       0.185582         5.0499 
 100   0.0000       0.189051         5.1443 
 101   0.0000       0.194477         5.2920 
 102   0.0000       0.195463         5.3188 
 103   0.0000       0.200836         5.4650 
 104   0.0000       0.203422         5.5354 
 105   0.0000       0.203814         5.5461 
 106   0.0000       0.207402         5.6437 
 107   0.0000       0.215971         5.8769 
 108   0.0000       0.218980         5.9587 
 109   0.0000       0.220886         6.0106 
 110   0.0000       0.222595         6.0571 
 111   0.0000       0.230499         6.2722 
 112   0.0000       0.235026         6.3954 
 113   0.0000       0.236848         6.4450 
 114   0.0000       0.239687         6.5222 
 115   0.0000       0.243406         6.6234 
 116   0.0000       0.245760         6.6875 
 117   0.0000       0.246847         6.7170 
 118   0.0000       0.249607         6.7921 
 119   0.0000       0.258902         7.0451 
 120   0.0000       0.260266         7.0822 
 121   0.0000       0.261607         7.1187 
 122   0.0000       0.262790         7.1509 
 123   0.0000       0.264693         7.2027 
 124   0.0000       0.267805         7.2874 
 125   0.0000       0.275989         7.5100 
 126   0.0000       0.280592         7.6353 
 127   0.0000       0.282932         7.6990 
 128   0.0000       0.289082         7.8663 
 129   0.0000       0.296919         8.0796 
 130   0.0000       0.298902         8.1335 
 131   0.0000       0.300194         8.1687 
 132   0.0000       0.305265         8.3067 
 133   0.0000       0.305785         8.3208 
 134   0.0000       0.305974         8.3260 
 135   0.0000       0.314764         8.5652 
 136   0.0000       0.315798         8.5933 
 137   0.0000       0.317230         8.6323 
 138   0.0000       0.323043         8.7904 
 139   0.0000       0.328307         8.9337 
 140   0.0000       0.329382         8.9630 
 141   0.0000       0.335074         9.1178 
 142   0.0000       0.336312         9.1515 
 143   0.0000       0.339653         9.2424 
 144   0.0000       0.343585         9.3494 
 145   0.0000       0.350206         9.5296 
 146   0.0000       0.351836         9.5739 
 147   0.0000       0.354719         9.6524 
 148   0.0000       0.356214         9.6931 
 149   0.0000       0.357307         9.7228 
 150   0.0000       0.358565         9.7570 
 151   0.0000       0.361926         9.8485 
 152   0.0000       0.372805        10.1445 
 153   0.0000       0.375232        10.2106 
 154   0.0000       0.377086        10.2610 
 155   0.0000       0.378493        10.2993 
 156   0.0000       0.380962        10.3665 
 157   0.0000       0.386590        10.5197 
 158   0.0000       0.389696        10.6042 
 159   0.0000       0.392523        10.6811 
 160   0.0000       0.400662        10.9026 
 161   0.0000       0.401643        10.9293 
 162   0.0000       0.402971        10.9654 
 163   0.0000       0.403358        10.9759 
 164   0.0000       0.404552        11.0084 
 165   0.0000       0.411953        11.2098 
 166   0.0000       0.416781        11.3412 
 167   0.0000       0.422051        11.4846 
 168   0.0000       0.424609        11.5542 
 169   0.0000       0.428168        11.6510 
 170   0.0000       0.430096        11.7035 
 171   0.0000       0.433695        11.8014 
 172   0.0000       0.436625        11.8812 
 173   0.0000       0.439328        11.9547 
 174   0.0000       0.446454        12.1486 
 175   0.0000       0.452785        12.3209 
 176   0.0000       0.458709        12.4821 
 177   0.0000       0.459048        12.4913 
 178   0.0000       0.465007        12.6535 
 179   0.0000       0.465648        12.6709 
 180   0.0000       0.469660        12.7801 
 181   0.0000       0.473408        12.8821 
 182   0.0000       0.474311        12.9067 
 183   0.0000       0.478964        13.0333 
 184   0.0000       0.490190        13.3387 
 185   0.0000       0.493605        13.4317 
 186   0.0000       0.496376        13.5071 
 187   0.0000       0.498124        13.5546 
 188   0.0000       0.502237        13.6666 
 189   0.0000       0.502476        13.6731 
 190   0.0000       0.509086        13.8529 
 191   0.0000       0.518964        14.1217 
 192   0.0000       0.521802        14.1989 
 193   0.0000       0.524654        14.2766 
 194   0.0000       0.531515        14.4633 
 195   0.0000       0.532432        14.4882 
 196   0.0000       0.536908        14.6100 
 197   0.0000       0.537555        14.6276 
 198   0.0000       0.543324        14.7846 
 199   0.0000       0.547880        14.9086 
 200   0.0000       0.554276        15.0826 
 201   0.0000       0.559316        15.2198 
 202   0.0000       0.569944        15.5090 
 203   0.0000       0.571982        15.5644 
 204   0.0000       0.576264        15.6809 
 205   0.0000       0.576417        15.6851 
 206   0.0000       0.585638        15.9360 
 207   0.0000       0.586279        15.9535 
 208   0.0000       0.589522        16.0417 
 209   0.0000       0.593204        16.1419 
 210   0.0000       0.600655        16.3446 
 211   0.0000       0.609769        16.5926 
 212   0.0000       0.609971        16.5982 
 213   0.0000       0.614302        16.7160 
 214   0.0000       0.616886        16.7863 
 215   0.0000       0.622443        16.9375 
 216   0.0000       0.625632        17.0243 
 217   0.0000       0.631256        17.1774 
 218   0.0000       0.632553        17.2126 
 219   0.0000       0.642475        17.4826 
 220   0.0000       0.647472        17.6186 
 221   0.0000       0.650807        17.7094 
 222   0.0000       0.654299        17.8044 
 223   0.0000       0.656116        17.8538 
 224   0.0000       0.661468        17.9995 
 225   0.0000       0.662232        18.0202 
 226   0.0000       0.666795        18.1444 
 227   0.0000       0.673465        18.3259 
 228   0.0000       0.673744        18.3335 
 229   0.0000       0.678562        18.4646 
 230   0.0000       0.683160        18.5897 
 231   0.0000       0.685534        18.6543 
 232   0.0000       0.690708        18.7951 
 233   0.0000       0.691853        18.8263 
 234   0.0000       0.697648        18.9840 
 235   0.0000       0.701053        19.0766 
 236   0.0000       0.703876        19.1534 
 237   0.0000       0.710189        19.3252 
 238   0.0000       0.715779        19.4773 
 239   0.0000       0.718798        19.5595 
 240   0.0000       0.723808        19.6958 
 241   0.0000       0.730960        19.8904 
 242   0.0000       0.734227        19.9793 
 243   0.0000       0.738195        20.0873 
 244   0.0000       0.738668        20.1002 
 245   0.0000       0.746600        20.3160 
 246   0.0000       0.750055        20.4100 
 247   0.0000       0.755876        20.5684 
 248   0.0000       0.757758        20.6196 
 249   0.0000       0.758397        20.6370 
 250   0.0000       0.762127        20.7385 
 251   0.0000       0.767919        20.8961 
 252   0.0000       0.770612        20.9694 
 253   0.0000       0.770714        20.9722 
 254   0.0000       0.775495        21.1023 
 255   0.0000       0.780912        21.2497 
 256   0.0000       0.784685        21.3524 
 257   0.0000       0.792112        21.5545 
 258   0.0000       0.799776        21.7630 
 259   0.0000       0.803293        21.8587 
 260   0.0000       0.812079        22.0978 
 261   0.0000       0.815916        22.2022 
 262   0.0000       0.822657        22.3856 
 263   0.0000       0.827599        22.5201 
 264   0.0000       0.831490        22.6260 
 265   0.0000       0.835637        22.7388 
 266   0.0000       0.839397        22.8412 
 267   0.0000       0.845460        23.0061 
 268   0.0000       0.853371        23.2214 
 269   0.0000       0.859068        23.3764 
 270   0.0000       0.866075        23.5671 
 271   0.0000       0.872361        23.7382 
 272   0.0000       0.873910        23.7803 
 273   0.0000       0.875558        23.8251 
 274   0.0000       0.881852        23.9964 
 275   0.0000       0.885019        24.0826 
 276   0.0000       0.885209        24.0878 
 277   0.0000       0.894150        24.3311 
 278   0.0000       0.895996        24.3813 
 279   0.0000       0.906497        24.6670 
 280   0.0000       0.908460        24.7204 
 281   0.0000       0.914216        24.8771 
 282   0.0000       0.915792        24.9200 
 283   0.0000       0.925222        25.1766 
 284   0.0000       0.932312        25.3695 
 285   0.0000       0.948101        25.7991 
 286   0.0000       0.949490        25.8369 
 287   0.0000       0.970282        26.4027 
 288   0.0000       0.970395        26.4058 
 289   0.0000       0.981293        26.7023 
 290   0.0000       0.982064        26.7233 
 291   0.0000       0.986803        26.8523 
 292   0.0000       0.993559        27.0361 
 293   0.0000       0.996861        27.1260 
 294   0.0000       1.002555        27.2809 
 295   0.0000       1.013221        27.5711 
 296   0.0000       1.016102        27.6495 
 297   0.0000       1.020142        27.7595 
 298   0.0000       1.021991        27.8098 
 299   0.0000       1.024059        27.8661 
 300   0.0000       1.038124        28.2488 
 301   0.0000       1.045012        28.4362 
 302   0.0000       1.047227        28.4965 
 303   0.0000       1.064979        28.9795 
 304   0.0000       1.074821        29.2474 
 305   0.0000       1.079262        29.3682 
 306   0.0000       1.083081        29.4721 
 307   0.0000       1.088513        29.6199 
 308   0.0000       1.099824        29.9277 
 309   0.0000       1.099930        29.9306 
 310   0.0000       1.109133        30.1811 
 311   0.0000       1.116984        30.3947 
 312   0.0000       1.124753        30.6061 
 313   0.0000       1.130619        30.7657 
 314   0.0000       1.135416        30.8962 
 315   0.0000       1.146971        31.2107 
 316   0.0000       1.155883        31.4532 
 317   0.0000       1.166184        31.7335 
 318   0.0000       1.170606        31.8538 
 319   0.0000       1.172724        31.9114 
 320   0.0000       1.181693        32.1555 
 321   0.0000       1.184898        32.2427 
 322   0.0000       1.196540        32.5595 
 323   0.0000       1.206958        32.8430 
 324   0.0000       1.210316        32.9344 
 325   0.0000       1.214892        33.0589 
 326   0.0000       1.233967        33.5779 
 327   0.0000       1.240648        33.7597 
 328   0.0000       1.241347        33.7788 
 329   0.0000       1.245539        33.8928 
 330   0.0000       1.262755        34.3613 
 331   0.0000       1.262949        34.3666 
 332   0.0000       1.276075        34.7238 
 333   0.0000       1.279589        34.8194 
 334   0.0000       1.283324        34.9210 
 335   0.0000       1.294979        35.2382 
 336   0.0000       1.305777        35.5320 
 337   0.0000       1.313340        35.7378 
 338   0.0000       1.317670        35.8556 
 339   0.0000       1.319260        35.8989 
 340   0.0000       1.326320        36.0910 
 341   0.0000       1.337835        36.4043 
 342   0.0000       1.344438        36.5840 
 343   0.0000       1.354397        36.8550 
 344   0.0000       1.360625        37.0245 
 345   0.0000       1.365975        37.1701 
 346   0.0000       1.368961        37.2513 
 347   0.0000       1.384711        37.6799 
 348   0.0000       1.388962        37.7956 
 349   0.0000       1.404308        38.2132 
 350   0.0000       1.410902        38.3926 
 351   0.0000       1.413031        38.4505 
 352   0.0000       1.413161        38.4541 
 353   0.0000       1.415853        38.5273 
 354   0.0000       1.432658        38.9846 
 355   0.0000       1.437841        39.1256 
 356   0.0000       1.446230        39.3539 
 357   0.0000       1.457329        39.6559 
 358   0.0000       1.462918        39.8080 
 359   0.0000       1.469140        39.9773 
 360   0.0000       1.472151        40.0593 
 361   0.0000       1.481523        40.3143 
 362   0.0000       1.486191        40.4413 
 363   0.0000       1.497378        40.7457 
 364   0.0000       1.515828        41.2478 
 365   0.0000       1.517883        41.3037 
 366   0.0000       1.521716        41.4080 
 367   0.0000       1.532615        41.7046 
 368   0.0000       1.546598        42.0851 
 369   0.0000       1.554084        42.2888 
 370   0.0000       1.560644        42.4673 
 371   0.0000       1.565240        42.5923 
 372   0.0000       1.571970        42.7755 
 373   0.0000       1.578963        42.9658 
 374   0.0000       1.602973        43.6191 
 375   0.0000       1.606938        43.7270 
 376   0.0000       1.615980        43.9730 
 377   0.0000       1.626074        44.2477 
 378   0.0000       1.633694        44.4551 
 379   0.0000       1.641947        44.6797 
 380   0.0000       1.649238        44.8780 
 381   0.0000       1.650233        44.9051 
 382   0.0000       1.669322        45.4246 
 383   0.0000       1.673469        45.5374 
 384   0.0000       1.687499        45.9192 
 385   0.0000       1.691688        46.0332 
 386   0.0000       1.701761        46.3073 
 387   0.0000       1.706675        46.4410 
 388   0.0000       1.720107        46.8065 
 389   0.0000       1.722355        46.8677 
 390   0.0000       1.732332        47.1392 
 391   0.0000       1.734549        47.1995 
 392   0.0000       1.751229        47.6534 
 393   0.0000       1.770115        48.1673 
 394   0.0000       1.776144        48.3313 
 395   0.0000       1.780379        48.4466 
 396   0.0000       1.782812        48.5128 
 397   0.0000       1.792400        48.7737 
 398   0.0000       1.796517        48.8857 
 399   0.0000       1.812910        49.3318 
 400   0.0000       1.813768        49.3551 
 401   0.0000       1.816966        49.4421 
 402   0.0000       1.818200        49.4757 
 403   0.0000       1.829383        49.7800 
 404   0.0000       1.846207        50.2379 
 405   0.0000       1.847498        50.2730 
 406   0.0000       1.849792        50.3354 
 407   0.0000       1.856098        50.5070 
 408   0.0000       1.862728        50.6874 
 409   0.0000       1.864087        50.7244 
 410   0.0000       1.872925        50.9649 
 411   0.0000       1.885890        51.3177 
 412   0.0000       1.891686        51.4754 
 413   0.0000       1.897679        51.6385 
 414   0.0000       1.906810        51.8869 
 415   0.0000       1.909746        51.9668 
 416   0.0000       1.918520        52.2056 
 417   0.0000       1.926125        52.4125 
 418   0.0000       1.935575        52.6697 
 419   0.0000       1.955225        53.2044 
 420   0.0000       1.957367        53.2627 
 421   0.0000       1.972801        53.6826 
 422   0.0000       1.977379        53.8072 
 423   0.0000       2.001790        54.4715 
 424   0.0000       2.004580        54.5474 
 425   0.0000       2.011735        54.7421 
 426   0.0000       2.023002        55.0487 
 427   0.0000       2.058279        56.0086 
 428   0.0000       2.069660        56.3183 
 429   0.0000       2.088070        56.8193 
 430   0.0000       2.095057        57.0094 
 431   0.0000       2.097236        57.0687 
 432   0.0000       2.110376        57.4263 
 433   0.0000       2.113352        57.5072 
 434   0.0000       2.120859        57.7115 
 435   0.0000       2.129046        57.9343 
 436   0.0000       2.168721        59.0139 
 437   0.0000       2.169038        59.0225 
 438   0.0000       2.177934        59.2646 
 439   0.0000       2.198449        59.8228 
 440   0.0000       2.200924        59.8902 
 441   0.0000       2.205142        60.0050 
 442   0.0000       2.226465        60.5852 
 443   0.0000       2.255843        61.3846 
 444   0.0000       2.267265        61.6954 
 445   0.0000       2.270503        61.7835 
 446   0.0000       2.278151        61.9916 
 447   0.0000       2.299882        62.5830 
 448   0.0000       2.316494        63.0350 
 449   0.0000       2.335280        63.5462 
 450   0.0000       2.364438        64.3396 
 451   0.0000       2.367044        64.4106 
 452   0.0000       2.376142        64.6581 
 453   0.0000       2.386885        64.9504 
 454   0.0000       2.401725        65.3543 
 455   0.0000       2.424548        65.9753 
 456   0.0000       2.445711        66.5512 
 457   0.0000       2.458710        66.9049 
 458   0.0000       2.477604        67.4190 
 459   0.0000       2.499550        68.0162 
 460   0.0000       2.512152        68.3591 
 461   0.0000       2.513112        68.3853 
 462   0.0000       2.527543        68.7779 
 463   0.0000       2.534288        68.9615 
 464   0.0000       2.535689        68.9996 
 465   0.0000       2.553851        69.4938 
 466   0.0000       2.569562        69.9213 
 467   0.0000       2.573211        70.0206 
 468   0.0000       2.608214        70.9731 
 469   0.0000       2.620481        71.3069 
 470   0.0000       2.634804        71.6967 
 471   0.0000       2.656050        72.2748 
 472   0.0000       2.662588        72.4527 
 473   0.0000       2.672388        72.7194 
 474   0.0000       2.702863        73.5486 
 475   0.0000       2.707897        73.6856 
 476   0.0000       2.728487        74.2459 
 477   0.0000       2.732682        74.3600 
 478   0.0000       2.758653        75.0668 
 479   0.0000       2.762053        75.1593 
 480   0.0000       2.782483        75.7152 
 481   0.0000       2.796743        76.1032 
 482   0.0000       2.799249        76.1714 
 483   0.0000       2.817487        76.6677 
 484   0.0000       2.834657        77.1349 
 485   0.0000       2.835828        77.1668 
 486   0.0000       2.867197        78.0204 
 487   0.0000       2.879573        78.3572 
 488   0.0000       2.887741        78.5794 
 489   0.0000       2.903921        79.0197 
 490   0.0000       2.916951        79.3743 
 491   0.0000       2.924708        79.5853 
 492   0.0000       2.938923        79.9722 
 493   0.0000       2.943102        80.0859 
 494   0.0000       2.962628        80.6172 
 495   0.0000       2.976536        80.9957 
 496   0.0000       2.983240        81.1781 
 497   0.0000       2.987705        81.2996 
 498   0.0000       2.995631        81.5153 
 499   0.0000       3.015956        82.0683 
 500   0.0000       3.032995        82.5320 
 501   0.0000       3.039672        82.7137 
 502   0.0000       3.047673        82.9314 
 503   0.0000       3.047814        82.9352 
 504   0.0000       3.061243        83.3007 
 505   0.0000       3.064768        83.3966 
 506   0.0000       3.069192        83.5170 
 507   0.0000       3.086215        83.9802 
 508   0.0000       3.090027        84.0839 
 509   0.0000       3.090469        84.0959 
 510   0.0000       3.095872        84.2430 
 511   0.0000       3.103124        84.4403 
 512   0.0000       3.103996        84.4640 
 513   0.0000       3.122558        84.9691 
 514   0.0000       3.139386        85.4270 
 515   0.0000       3.140581        85.4596 
 516   0.0000       3.153142        85.8014 
 517   0.0000       3.153395        85.8082 
 518   0.0000       3.160933        86.0134 
 519   0.0000       3.163908        86.0943 
 520   0.0000       3.172769        86.3354 
 521   0.0000       3.184762        86.6618 
 522   0.0000       3.200740        87.0966 
 523   0.0000       3.205221        87.2185 
 524   0.0000       3.209511        87.3352 
 525   0.0000       3.216164        87.5163 
 526   0.0000       3.219243        87.6000 
 527   0.0000       3.229972        87.8920 
 528   0.0000       3.245849        88.3240 
 529   0.0000       3.251919        88.4892 
 530   0.0000       3.262096        88.7661 
 531   0.0000       3.269435        88.9658 
 532   0.0000       3.272330        89.0446 
 533   0.0000       3.273018        89.0633 
 534   0.0000       3.280355        89.2630 
 535   0.0000       3.293393        89.6178 
 536   0.0000       3.299248        89.7771 
 537   0.0000       3.303886        89.9033 
 538   0.0000       3.306407        89.9719 
 539   0.0000       3.314739        90.1986 
 540   0.0000       3.319483        90.3277 
 541   0.0000       3.326488        90.5183 
 542   0.0000       3.331237        90.6476 
 543   0.0000       3.331873        90.6649 
 544   0.0000       3.343625        90.9847 
 545   0.0000       3.352731        91.2324 
 546   0.0000       3.365984        91.5931 
 547   0.0000       3.371271        91.7370 
 548   0.0000       3.372868        91.7804 
 549   0.0000       3.389330        92.2284 
 550   0.0000       3.389899        92.2438 
 551   0.0000       3.392567        92.3164 
 552   0.0000       3.394469        92.3682 
 553   0.0000       3.408910        92.7612 
 554   0.0000       3.412299        92.8534 
 555   0.0000       3.423341        93.1539 
 556   0.0000       3.449761        93.8728 
 557   0.0000       3.458984        94.1237 
 558   0.0000       3.465149        94.2915 
 559   0.0000       3.472652        94.4957 
 560   0.0000       3.474402        94.5433 
 561   0.0000       3.484825        94.8269 
 562   0.0000       3.503055        95.3230 
 563   0.0000       3.509340        95.4940 
 564   0.0000       3.517791        95.7240 
 565   0.0000       3.527830        95.9971 
 566   0.0000       3.530681        96.0747 
 567   0.0000       3.539472        96.3139 
 568   0.0000       3.539764        96.3219 
 569   0.0000       3.547672        96.5371 
 570   0.0000       3.548456        96.5584 
 571   0.0000       3.552921        96.6799 
 572   0.0000       3.557844        96.8139 
 573   0.0000       3.567716        97.0825 
 574   0.0000       3.572246        97.2058 
 575   0.0000       3.581764        97.4648 
 576   0.0000       3.595389        97.8355 
 577   0.0000       3.609679        98.2244 
 578   0.0000       3.614833        98.3646 
 579   0.0000       3.620566        98.5206 
 580   0.0000       3.629561        98.7654 
 581   0.0000       3.634237        98.8926 
 582   0.0000       3.642051        99.1052 
 583   0.0000       3.682676       100.2107 
 584   0.0000       3.713322       101.0446 
 585   0.0000       3.722084       101.2831 
 586   0.0000       3.729703       101.4904 
 587   0.0000       3.732731       101.5728 
 588   0.0000       3.737784       101.7103 
 589   0.0000       3.741097       101.8004 
 590   0.0000       3.751767       102.0908 
 591   0.0000       3.759877       102.3114 
 592   0.0000       3.775745       102.7432 
 593   0.0000       3.778960       102.8307 
 594   0.0000       3.782171       102.9181 
 595   0.0000       3.786388       103.0328 
 596   0.0000       3.805848       103.5624 
 597   0.0000       3.834549       104.3434 
 598   0.0000       3.856019       104.9276 
 599   0.0000       3.861249       105.0699 
 600   0.0000       3.867782       105.2477 
 601   0.0000       3.876967       105.4976 
 602   0.0000       3.884865       105.7126 
 603   0.0000       3.890850       105.8754 
 604   0.0000       3.914390       106.5160 
 605   0.0000       3.941560       107.2553 
 606   0.0000       3.950173       107.4897 
 607   0.0000       3.952892       107.5637 
 608   0.0000       3.964932       107.8913 
 609   0.0000       3.967882       107.9716 
 610   0.0000       3.982582       108.3716 
 611   0.0000       3.994457       108.6947 
 612   0.0000       4.011526       109.1592 
 613   0.0000       4.013274       109.2067 
 614   0.0000       4.027112       109.5833 
 615   0.0000       4.032671       109.7346 
 616   0.0000       4.037815       109.8745 
 617   0.0000       4.043771       110.0366 
 618   0.0000       4.072782       110.8260 
 619   0.0000       4.073728       110.8518 
 620   0.0000       4.076511       110.9275 
 621   0.0000       4.089494       111.2808 
 622   0.0000       4.101402       111.6048 
 623   0.0000       4.107152       111.7613 
 624   0.0000       4.116873       112.0258 
 625   0.0000       4.140672       112.6734 
 626   0.0000       4.164027       113.3089 
 627   0.0000       4.171616       113.5154 
 628   0.0000       4.198454       114.2457 
 629   0.0000       4.205639       114.4412 
 630   0.0000       4.208454       114.5178 
 631   0.0000       4.222966       114.9127 
 632   0.0000       4.228397       115.0605 
 633   0.0000       4.231140       115.1352 
 634   0.0000       4.232255       115.1655 
 635   0.0000       4.247629       115.5839 
 636   0.0000       4.259348       115.9027 
 637   0.0000       4.274739       116.3215 
 638   0.0000       4.282143       116.5230 
 639   0.0000       4.297765       116.9481 
 640   0.0000       4.307510       117.2133 
 641   0.0000       4.311757       117.3289 
 642   0.0000       4.321002       117.5804 
 643   0.0000       4.360409       118.6528 
 644   0.0000       4.367569       118.8476 
 645   0.0000       4.376822       119.0994 
 646   0.0000       4.397733       119.6684 
 647   0.0000       4.397939       119.6740 
 648   0.0000       4.413238       120.0903 
 649   0.0000       4.418896       120.2443 
 650   0.0000       4.427876       120.4886 
 651   0.0000       4.436850       120.7328 
 652   0.0000       4.441319       120.8544 
 653   0.0000       4.453481       121.1854 
 654   0.0000       4.471084       121.6644 
 655   0.0000       4.495671       122.3334 
 656   0.0000       4.501101       122.4812 
 657   0.0000       4.507734       122.6617 
 658   0.0000       4.525945       123.1572 
 659   0.0000       4.547241       123.7367 
 660   0.0000       4.558515       124.0435 
 661   0.0000       4.567135       124.2780 
 662   0.0000       4.568197       124.3069 
 663   0.0000       4.577366       124.5565 
 664   0.0000       4.592131       124.9582 
 665   0.0000       4.640001       126.2608 
 666   0.0000       4.655155       126.6732 
 667   0.0000       4.657508       126.7372 
 668   0.0000       4.666386       126.9788 
 669   0.0000       4.673766       127.1796 
 670   0.0000       4.716577       128.3446 
 671   0.0000       4.725111       128.5768 
 672   0.0000       4.732977       128.7908 
 673   0.0000       4.743148       129.0676 
 674   0.0000       4.744004       129.0909 
 675   0.0000       4.756586       129.4333 
 676   0.0000       4.781763       130.1184 
 677   0.0000       4.791703       130.3889 
 678   0.0000       4.803111       130.6993 
 679   0.0000       4.825265       131.3021 
 680   0.0000       4.831817       131.4804 
 681   0.0000       4.835193       131.5723 
 682   0.0000       4.863803       132.3508 
 683   0.0000       4.870403       132.5304 
 684   0.0000       4.881763       132.8395 
 685   0.0000       4.884051       132.9018 
 686   0.0000       4.907523       133.5405 
 687   0.0000       4.931326       134.1882 
 688   0.0000       4.943158       134.5102 
 689   0.0000       4.947227       134.6209 
 690   0.0000       4.955073       134.8344 
 691   0.0000       4.965663       135.1226 
 692   0.0000       4.994479       135.9067 
 693   0.0000       5.009739       136.3219 
 694   0.0000       5.050433       137.4293 
 695   0.0000       5.061094       137.7194 
 696   0.0000       5.064221       137.8045 
 697   0.0000       5.074761       138.0913 
 698   0.0000       5.093083       138.5898 
 699   0.0000       5.105759       138.9348 
 700   0.0000       5.116307       139.2218 
 701   0.0000       5.117363       139.2505 
 702   0.0000       5.124939       139.4567 
 703   0.0000       5.144270       139.9827 
 704   0.0000       5.148530       140.0986 
 705   0.0000       5.162291       140.4731 
 706   0.0000       5.167372       140.6113 
 707   0.0000       5.180380       140.9653 
 708   0.0000       5.193420       141.3201 
 709   0.0000       5.208812       141.7390 
 710   0.0000       5.216662       141.9526 
 711   0.0000       5.229016       142.2888 
 712   0.0000       5.233198       142.4025 
 713   0.0000       5.238080       142.5354 
 714   0.0000       5.253673       142.9597 
 715   0.0000       5.260762       143.1526 
 716   0.0000       5.264159       143.2450 
 717   0.0000       5.280342       143.6854 
 718   0.0000       5.291047       143.9767 
 719   0.0000       5.309114       144.4683 
 720   0.0000       5.312109       144.5498 
 721   0.0000       5.325934       144.9260 
 722   0.0000       5.331100       145.0666 
 723   0.0000       5.339896       145.3059 
 724   0.0000       5.367456       146.0559 
 725   0.0000       5.370266       146.1324 
 726   0.0000       5.373100       146.2095 
 727   0.0000       5.403540       147.0378 
 728   0.0000       5.415445       147.3617 
 729   0.0000       5.419052       147.4599 
 730   0.0000       5.435856       147.9172 
 731   0.0000       5.456167       148.4698 
 732   0.0000       5.461640       148.6188 
 733   0.0000       5.465844       148.7332 
 734   0.0000       5.479165       149.0957 
 735   0.0000       5.519217       150.1855 
 736   0.0000       5.542773       150.8265 
 737   0.0000       5.552110       151.0806 
 738   0.0000       5.571509       151.6085 
 739   0.0000       5.595639       152.2651 
 740   0.0000       5.658508       153.9758 
 741   0.0000       5.690993       154.8598 
 742   0.0000       5.705183       155.2459 
 743   0.0000       5.707572       155.3109 
 744   0.0000       5.743170       156.2796 
 745   0.0000       5.750288       156.4733 
 746   0.0000       5.791448       157.5933 
 747   0.0000       5.805581       157.9779 
 748   0.0000       5.867149       159.6532 
 749   0.0000       5.923631       161.1902 
 750   0.0000       5.974989       162.5877 
 751   0.0000       6.004306       163.3855 
 752   0.0000       6.021027       163.8405 
 753   0.0000       6.039938       164.3551 
 754   0.0000       6.136802       166.9909 
 755   0.0000       6.188112       168.3871 
 756   0.0000       6.190496       168.4520 
 757   0.0000       6.263890       170.4491 
 758   0.0000       6.283199       170.9745 
 759   0.0000       6.338894       172.4901 
 760   0.0000       6.436421       175.1439 
 761   0.0000       6.662549       181.2972 
 762   0.0000       6.877867       187.1563 
 763   0.0000      23.413740       637.1203 
 764   0.0000      23.458886       638.3487 
 765   0.0000      23.484266       639.0394 
 766   0.0000      23.548911       640.7984 
 767   0.0000      23.557527       641.0329 
 768   0.0000      23.613343       642.5517 
 769   0.0000      23.710488       645.1952 
 770   0.0000      23.876537       649.7136 
 771   0.0000      24.000874       653.0970 
 772   0.0000      24.104925       655.9284 
 773   0.0000      24.190914       658.2682 
 774   0.0000      32.931139       896.1019 
 775   0.0000      33.264521       905.1736 
 776   0.0000      33.432867       909.7546 
 777   0.0000      34.898388       949.6334 
 778   0.0000      35.084885       954.7083 
 779   0.0000      35.221464       958.4248 
 780   0.0000      43.394300      1180.8189 
 781   0.0000     107.007693      2911.8274 
 782   0.0000     118.377997      3221.2291 

                    ********************************
                    * MULLIKEN POPULATION ANALYSIS *
                    ********************************

-----------------------
MULLIKEN ATOMIC CHARGES
-----------------------
   0 C :    0.348687
   1 C :   -0.424684
   2 C :   -0.175918
   3 C :   -0.230924
   4 H :   -0.183951
   5 H :    0.159570
   6 H :    0.183785
   7 H :    0.036192
   8 N :   -0.007427
   9 C :    0.749074
  10 C :    0.057474
  11 N :    0.053080
  12 C :   -0.005656
  13 C :   -0.170035
  14 C :   -0.362417
  15 H :    0.145507
  16 H :    0.157049
  17 C :   -0.241788
  18 H :    0.026741
  19 H :    0.184814
  20 Pd:    0.081504
  21 C :   -0.892322
  22 H :    0.251585
  23 H :    0.252301
  24 H :    0.335018
  25 I :   -0.327259
Sum of atomic charges:    0.0000000

--------------------------------
MULLIKEN REDUCED ORBITAL CHARGES
--------------------------------
  0 C s       :     2.927758  s :     2.927758
      pz      :     0.816208  p :     2.703744
      px      :     0.933808
      py      :     0.953728
      dz2     :    -0.015007  d :     0.008493
      dxz     :     0.001917
      dyz     :     0.046125
      dx2y2   :     0.061918
      dxy     :    -0.086460
      f0      :     0.001808  f :     0.011317
      f+1     :     0.000663
      f-1     :     0.000942
      f+2     :     0.000461
      f-2     :     0.001536
      f+3     :     0.001826
      f-3     :     0.004082
  1 C s       :     3.502800  s :     3.502800
      pz      :     0.959391  p :     2.867418
      px      :     0.933315
      py      :     0.974711
      dz2     :     0.005101  d :     0.047310
      dxz     :     0.020687
      dyz     :     0.019598
      dx2y2   :    -0.024736
      dxy     :     0.026660
      f0      :     0.001451  f :     0.007156
      f+1     :     0.000608
      f-1     :     0.000563
      f+2     :     0.000755
      f-2     :     0.000334
      f+3     :     0.001067
      f-3     :     0.002378
  2 C s       :     3.468308  s :     3.468308
      pz      :     0.857624  p :     2.688932
      px      :     0.792549
      py      :     1.038760
      dz2     :    -0.000521  d :     0.011353
      dxz     :     0.021608
      dyz     :    -0.001927
      dx2y2   :     0.013201
      dxy     :    -0.021009
      f0      :     0.001450  f :     0.007324
      f+1     :     0.000576
      f-1     :     0.000540
      f+2     :     0.000801
      f-2     :     0.000504
      f+3     :     0.001043
      f-3     :     0.002410
  3 C s       :     3.491859  s :     3.491859
      pz      :     0.978875  p :     2.750577
      px      :     0.946957
      py      :     0.824745
      dz2     :     0.006611  d :    -0.018839
      dxz     :     0.014047
      dyz     :     0.025074
      dx2y2   :    -0.030469
      dxy     :    -0.034102
      f0      :     0.001467  f :     0.007327
      f+1     :     0.000553
      f-1     :     0.000626
      f+2     :     0.000301
      f-2     :     0.000893
      f+3     :     0.001055
      f-3     :     0.002432
  4 H s       :     1.092443  s :     1.092443
      pz      :     0.010496  p :     0.089000
      px      :    -0.004384
      py      :     0.082888
      dz2     :     0.000170  d :     0.002508
      dxz     :     0.000695
      dyz     :     0.000029
      dx2y2   :     0.000666
      dxy     :     0.000949
  5 H s       :     0.789766  s :     0.789766
      pz      :     0.023601  p :     0.048326
      px      :     0.012818
      py      :     0.011906
      dz2     :     0.000152  d :     0.002338
      dxz     :     0.000221
      dyz     :     0.000486
      dx2y2   :     0.000895
      dxy     :     0.000584
  6 H s       :     0.785927  s :     0.785927
      pz      :     0.014505  p :     0.027985
      px      :     0.005266
      py      :     0.008213
      dz2     :     0.000151  d :     0.002304
      dxz     :     0.000154
      dyz     :     0.000496
      dx2y2   :     0.000843
      dxy     :     0.000660
  7 H s       :     0.913665  s :     0.913665
      pz      :     0.022795  p :     0.047650
      px      :     0.005264
      py      :     0.019591
      dz2     :     0.000167  d :     0.002492
      dxz     :     0.000733
      dyz     :     0.000014
      dx2y2   :     0.000546
      dxy     :     0.001032
  8 N s       :     3.400647  s :     3.400647
      pz      :     1.187192  p :     3.461992
      px      :     1.028859
      py      :     1.245941
      dz2     :    -0.003777  d :     0.140654
      dxz     :     0.027201
      dyz     :     0.028704
      dx2y2   :     0.021616
      dxy     :     0.066909
      f0      :     0.000719  f :     0.004134
      f+1     :     0.000412
      f-1     :     0.000333
      f+2     :     0.000491
      f-2     :     0.000352
      f+3     :     0.000749
      f-3     :     0.001078
  9 C s       :     2.951944  s :     2.951944
      pz      :     0.864034  p :     2.197805
      px      :     0.713994
      py      :     0.619777
      dz2     :    -0.016394  d :     0.087679
      dxz     :     0.046243
      dyz     :     0.021005
      dx2y2   :     0.173533
      dxy     :    -0.136708
      f0      :     0.002185  f :     0.013498
      f+1     :     0.001073
      f-1     :     0.000814
      f+2     :     0.001562
      f-2     :     0.000718
      f+3     :     0.002305
      f-3     :     0.004841
 10 C s       :     3.349260  s :     3.349260
      pz      :     0.853076  p :     2.483202
      px      :     0.892907
      py      :     0.737219
      dz2     :    -0.018080  d :     0.096628
      dxz     :     0.013921
      dyz     :     0.064797
      dx2y2   :    -0.036602
      dxy     :     0.072591
      f0      :     0.002179  f :     0.013436
      f+1     :     0.000894
      f-1     :     0.000996
      f+2     :     0.000886
      f-2     :     0.001419
      f+3     :     0.002494
      f-3     :     0.004567
 11 N s       :     3.352916  s :     3.352916
      pz      :     1.207972  p :     3.462146
      px      :     1.359287
      py      :     0.894887
      dz2     :    -0.005739  d :     0.127632
      dxz     :     0.026821
      dyz     :     0.041579
      dx2y2   :     0.018176
      dxy     :     0.046795
      f0      :     0.000739  f :     0.004226
      f+1     :     0.000325
      f-1     :     0.000463
      f+2     :     0.000308
      f-2     :     0.000551
      f+3     :     0.000794
      f-3     :     0.001046
 12 C s       :     3.084161  s :     3.084161
      pz      :     0.850456  p :     2.760651
      px      :     1.068457
      py      :     0.841738
      dz2     :    -0.012877  d :     0.149510
      dxz     :     0.012107
      dyz     :     0.022164
      dx2y2   :     0.019064
      dxy     :     0.109053
      f0      :     0.001819  f :     0.011334
      f+1     :     0.000682
      f-1     :     0.000936
      f+2     :     0.001273
      f-2     :     0.000756
      f+3     :     0.002076
      f-3     :     0.003792
 13 C s       :     3.483193  s :     3.483193
      pz      :     0.853579  p :     2.670854
      px      :     1.015208
      py      :     0.802066
      dz2     :     0.000973  d :     0.008677
      dxz     :    -0.009065
      dyz     :     0.026939
      dx2y2   :    -0.009493
      dxy     :    -0.000677
      f0      :     0.001448  f :     0.007311
      f+1     :     0.000533
      f-1     :     0.000583
      f+2     :     0.000268
      f-2     :     0.001033
      f+3     :     0.001187
      f-3     :     0.002260
 14 C s       :     3.491801  s :     3.491801
      pz      :     0.957625  p :     2.826850
      px      :     0.865831
      py      :     1.003394
      dz2     :     0.002981  d :     0.036587
      dxz     :     0.013694
      dyz     :     0.019852
      dx2y2   :     0.012158
      dxy     :    -0.012098
      f0      :     0.001468  f :     0.007180
      f+1     :     0.000596
      f-1     :     0.000584
      f+2     :     0.000552
      f-2     :     0.000564
      f+3     :     0.001244
      f-3     :     0.002173
 15 H s       :     0.828289  s :     0.828289
      pz      :    -0.000176  p :     0.023574
      px      :     0.000104
      py      :     0.023646
      dz2     :     0.000170  d :     0.002631
      dxz     :     0.000341
      dyz     :     0.000433
      dx2y2   :     0.001076
      dxy     :     0.000612
 16 H s       :     0.796954  s :     0.796954
      pz      :     0.023484  p :     0.043655
      px      :     0.010380
      py      :     0.009791
      dz2     :     0.000154  d :     0.002341
      dxz     :     0.000104
      dyz     :     0.000606
      dx2y2   :     0.000713
      dxy     :     0.000764
 17 C s       :     3.517640  s :     3.517640
      pz      :     0.978797  p :     2.750755
      px      :     0.839149
      py      :     0.932809
      dz2     :     0.006145  d :    -0.033951
      dxz     :     0.025379
      dyz     :     0.015380
      dx2y2   :    -0.084592
      dxy     :     0.003736
      f0      :     0.001476  f :     0.007344
      f+1     :     0.000598
      f-1     :     0.000581
      f+2     :     0.000832
      f-2     :     0.000359
      f+3     :     0.001176
      f-3     :     0.002322
 18 H s       :     0.921715  s :     0.921715
      pz      :     0.023056  p :     0.049039
      px      :     0.015184
      py      :     0.010800
      dz2     :     0.000168  d :     0.002504
      dxz     :     0.000260
      dyz     :     0.000491
      dx2y2   :     0.000943
      dxy     :     0.000643
 19 H s       :     0.787724  s :     0.787724
      pz      :     0.013632  p :     0.025165
      px      :     0.006767
      py      :     0.004766
      dz2     :     0.000151  d :     0.002298
      dxz     :     0.000625
      dyz     :     0.000020
      dx2y2   :     0.000554
      dxy     :     0.000947
 20 Pds       :     2.961092  s :     2.961092
      pz      :     2.036586  p :     5.988229
      px      :     1.893312
      py      :     2.058330
      dz2     :     1.921920  d :     8.953165
      dxz     :     1.942974
      dyz     :     1.972005
      dx2y2   :     1.337206
      dxy     :     1.779059
      f0      :     0.000843  f :     0.015668
      f+1     :     0.001875
      f-1     :     0.002182
      f+2     :     0.001201
      f-2     :     0.000379
      f+3     :     0.005752
      f-3     :     0.003435
      g0      :     0.000053  g :     0.000343
      g+1     :     0.000038
      g-1     :     0.000036
      g+2     :     0.000062
      g-2     :     0.000033
      g+3     :     0.000011
      g-3     :     0.000007
      g+4     :     0.000045
      g-4     :     0.000059
 21 C s       :     3.188748  s :     3.188748
      pz      :     1.212501  p :     3.634853
      px      :     1.353049
      py      :     1.069304
[...]
      dxy     :     2.008405
      f0      :     0.000823  f :     0.007495
      f+1     :     0.001251
      f-1     :     0.000249
      f+2     :     0.001041
      f-2     :     0.000399
      f+3     :     0.001987
      f-3     :     0.001744


                     *******************************
                     * LOEWDIN POPULATION ANALYSIS *
                     *******************************

----------------------
LOEWDIN ATOMIC CHARGES
----------------------
   0 C :   -0.049891
   1 C :    0.059373
   2 C :    0.049593
   3 C :    0.077313
   4 H :   -0.091071
   5 H :    0.009723
   6 H :    0.012590
   7 H :    0.000193
   8 N :    0.005264
   9 C :   -0.174711
  10 C :   -0.159144
  11 N :    0.020007
  12 C :   -0.009739
  13 C :    0.053252
  14 C :    0.059326
  15 H :   -0.012075
  16 H :    0.010051
  17 C :    0.079808
  18 H :    0.001769
  19 H :    0.013797
  20 Pd:    0.410963
  21 C :   -0.073005
  22 H :   -0.109438
  23 H :   -0.109402
  24 H :   -0.166056
  25 I :    0.091512

-------------------------------
LOEWDIN REDUCED ORBITAL CHARGES
-------------------------------
  0 C s       :     2.651187  s :     2.651187
      pz      :     0.669857  p :     2.509982
      px      :     0.927512
      py      :     0.912613
      dz2     :     0.074195  d :     0.825237
      dxz     :     0.045233
      dyz     :     0.153868
      dx2y2   :     0.325540
      dxy     :     0.226402
      f0      :     0.003994  f :     0.063485
      f+1     :     0.003869
      f-1     :     0.006089
      f+2     :     0.002813
      f-2     :     0.010061
      f+3     :     0.012855
      f-3     :     0.023803
  1 C s       :     2.651773  s :     2.651773
      pz      :     0.726904  p :     2.603813
      px      :     0.945686
      py      :     0.931222
      dz2     :     0.058640  d :     0.641772
      dxz     :     0.092477
      dyz     :     0.052171
      dx2y2   :     0.179471
      dxy     :     0.259012
      f0      :     0.002613  f :     0.043269
      f+1     :     0.003885
      f-1     :     0.003744
      f+2     :     0.005732
      f-2     :     0.002674
      f+3     :     0.009139
      f-3     :     0.015482
  2 C s       :     2.654363  s :     2.654363
      pz      :     0.692463  p :     2.575458
      px      :     0.952404
      py      :     0.930591
      dz2     :     0.057923  d :     0.676428
      dxz     :     0.113783
      dyz     :     0.055644
      dx2y2   :     0.203328
      dxy     :     0.245751
      f0      :     0.002584  f :     0.044159
      f+1     :     0.003820
      f-1     :     0.003514
      f+2     :     0.005816
      f-2     :     0.003741
      f+3     :     0.008829
      f-3     :     0.015855
  3 C s       :     2.634729  s :     2.634729
      pz      :     0.734991  p :     2.578698
      px      :     0.908536
      py      :     0.935170
      dz2     :     0.063098  d :     0.665633
      dxz     :     0.035856
      dyz     :     0.121550
      dx2y2   :     0.261443
      dxy     :     0.183687
      f0      :     0.002601  f :     0.043626
      f+1     :     0.003506
      f-1     :     0.004260
      f+2     :     0.002089
      f-2     :     0.006854
      f+3     :     0.009161
      f-3     :     0.015155
  4 H s       :     0.690096  s :     0.690096
      pz      :     0.067783  p :     0.371830
      px      :     0.179678
      py      :     0.124368
      dz2     :     0.003082  d :     0.029146
      dxz     :     0.007416
      dyz     :     0.000141
      dx2y2   :     0.009993
      dxy     :     0.008514
  5 H s       :     0.702200  s :     0.702200
      pz      :     0.072226  p :     0.258705
      px      :     0.081887
      py      :     0.104592
      dz2     :     0.002873  d :     0.029372
      dxz     :     0.002568
      dyz     :     0.005741
      dx2y2   :     0.009193
      dxy     :     0.008997
  6 H s       :     0.702606  s :     0.702606
      pz      :     0.068136  p :     0.255823
      px      :     0.077826
      py      :     0.109861
      dz2     :     0.002871  d :     0.028981
      dxz     :     0.001761
      dyz     :     0.005949
      dx2y2   :     0.009260
      dxy     :     0.009141
  7 H s       :     0.685863  s :     0.685863
      pz      :     0.072615  p :     0.284015
      px      :     0.128107
      py      :     0.083293
      dz2     :     0.002886  d :     0.029929
      dxz     :     0.008661
      dyz     :     0.000022
      dx2y2   :     0.009016
      dxy     :     0.009344
  8 N s       :     2.915918  s :     2.915918
      pz      :     0.975096  p :     3.320000
      px      :     1.121691
      py      :     1.223213
      dz2     :     0.074879  d :     0.740703
      dxz     :     0.114737
      dyz     :     0.086310
      dx2y2   :     0.230743
      dxy     :     0.234035
      f0      :     0.001066  f :     0.018116
      f+1     :     0.001790
      f-1     :     0.001172
      f+2     :     0.002568
      f-2     :     0.001310
      f+3     :     0.003534
      f-3     :     0.006676
  9 C s       :     2.610208  s :     2.610208
      pz      :     0.714720  p :     2.486579
      px      :     0.862467
      py      :     0.909392
      dz2     :     0.085215  d :     1.002694
      dxz     :     0.155350
      dyz     :     0.134445
      dx2y2   :     0.292853
      dxy     :     0.334831
      f0      :     0.005225  f :     0.075230
      f+1     :     0.006621
      f-1     :     0.004815
      f+2     :     0.010675
      f-2     :     0.005247
      f+3     :     0.013281
      f-3     :     0.029365
 10 C s       :     2.611933  s :     2.611933
      pz      :     0.707745  p :     2.478103
      px      :     0.920040
      py      :     0.850318
      dz2     :     0.084896  d :     0.994960
      dxz     :     0.151743
      dyz     :     0.137915
      dx2y2   :     0.308990
      dxy     :     0.311416
      f0      :     0.005218  f :     0.074149
      f+1     :     0.005639
      f-1     :     0.005754
      f+2     :     0.006321
      f-2     :     0.009577
      f+3     :     0.014038
      f-3     :     0.027601
 11 N s       :     2.906587  s :     2.906587
      pz      :     0.988009  p :     3.305951
      px      :     1.229607
      py      :     1.088335
      dz2     :     0.077031  d :     0.749110
      dxz     :     0.076299
      dyz     :     0.130875
      dx2y2   :     0.239242
      dxy     :     0.225662
      f0      :     0.001050  f :     0.018345
      f+1     :     0.001008
      f-1     :     0.002040
      f+2     :     0.000907
      f-2     :     0.003110
      f+3     :     0.003822
      f-3     :     0.006408
 12 C s       :     2.640124  s :     2.640124
      pz      :     0.681793  p :     2.499186
      px      :     0.942564
      py      :     0.874829
      dz2     :     0.068614  d :     0.807202
      dxz     :     0.116413
      dyz     :     0.087121
      dx2y2   :     0.218991
      dxy     :     0.316063
      f0      :     0.003952  f :     0.063226
      f+1     :     0.004586
      f-1     :     0.005446
      f+2     :     0.008550
      f-2     :     0.004527
      f+3     :     0.014355
      f-3     :     0.021811
 13 C s       :     2.654074  s :     2.654074
      pz      :     0.690548  p :     2.573966
      px      :     0.925883
      py      :     0.957535
      dz2     :     0.057629  d :     0.674487
      dxz     :     0.035208
      dyz     :     0.133902
      dx2y2   :     0.270543
      dxy     :     0.177205
      f0      :     0.002600  f :     0.044221
      f+1     :     0.003382
      f-1     :     0.003953
      f+2     :     0.002169
      f-2     :     0.007410
      f+3     :     0.009571
      f-3     :     0.015135
 14 C s       :     2.651029  s :     2.651029
      pz      :     0.730440  p :     2.604466
      px      :     0.945970
      py      :     0.928056
      dz2     :     0.058407  d :     0.641684
      dxz     :     0.096523
      dyz     :     0.050300
      dx2y2   :     0.227368
      dxy     :     0.209086
      f0      :     0.002644  f :     0.043494
      f+1     :     0.004120
      f-1     :     0.003540
      f+2     :     0.004350
      f-2     :     0.004231
      f+3     :     0.009959
      f-3     :     0.014650
 15 H s       :     0.672074  s :     0.672074
      pz      :     0.071612  p :     0.310333
      px      :     0.139745
      py      :     0.098975
      dz2     :     0.003023  d :     0.029669
      dxz     :     0.003376
      dyz     :     0.004620
      dx2y2   :     0.008921
      dxy     :     0.009729
 16 H s       :     0.701872  s :     0.701872
      pz      :     0.072798  p :     0.258664
      px      :     0.070813
      py      :     0.115052
      dz2     :     0.002872  d :     0.029414
      dxz     :     0.001136
      dyz     :     0.007244
      dx2y2   :     0.009049
      dxy     :     0.009113
 17 C s       :     2.634074  s :     2.634074
      pz      :     0.732847  p :     2.577321
      px      :     0.921821
      py      :     0.922653
      dz2     :     0.063121  d :     0.665139
      dxz     :     0.085443
      dyz     :     0.071060
      dx2y2   :     0.195880
      dxy     :     0.249634
      f0      :     0.002623  f :     0.043658
      f+1     :     0.004110
      f-1     :     0.003673
      f+2     :     0.006352
      f-2     :     0.002509
      f+3     :     0.009718
      f-3     :     0.014673
 18 H s       :     0.683999  s :     0.683999
      pz      :     0.071716  p :     0.284260
      px      :     0.086084
      py      :     0.126460
      dz2     :     0.002893  d :     0.029973
      dxz     :     0.002939
      dyz     :     0.005716
      dx2y2   :     0.009222
      dxy     :     0.009203
 19 H s       :     0.702057  s :     0.702057
      pz      :     0.067710  p :     0.255160
      px      :     0.122897
      py      :     0.064552
      dz2     :     0.002880  d :     0.028986
      dxz     :     0.007581
      dyz     :     0.000115
      dx2y2   :     0.009064
      dxy     :     0.009346
 20 Pds       :     2.101522  s :     2.101522
      pz      :     2.053400  p :     6.523957
      px      :     2.278568
      py      :     2.191989
      dz2     :     1.915787  d :     8.928538
      dxz     :     1.921809
      dyz     :     1.931410
      dx2y2   :     1.408654
      dxy     :     1.750878
      f0      :     0.001476  f :     0.034481
      f+1     :     0.004451
      f-1     :     0.004520
      f+2     :     0.002206
      f-2     :     0.000736
      f+3     :     0.013514
      f-3     :     0.007578
      g0      :     0.000066  g :     0.000539
      g+1     :     0.000038
      g-1     :     0.000036
      g+2     :     0.000090
      g-2     :     0.000041
      g+3     :     0.000023
      g-3     :     0.000014
      g+4     :     0.000107
      g-4     :     0.000123
 21 C s       :     2.733404  s :     2.733404
      pz      :     0.957768  p :     2.843640
      px      :     0.972595
      py      :     0.913276
      dz2     :     0.089990  d :     0.473060
      dxz     :     0.055065
      dyz     :     0.082744
      dx2y2   :     0.125821
      dxy     :     0.119441
      f0      :     0.001168  f :     0.022902
      f+1     :     0.004485
      f-1     :     0.004381
      f+2     :     0.001349
      f-2     :     0.004425
      f+3     :     0.003902
      f-3     :     0.003192
 22 H s       :     0.727534  s :     0.727534
      pz      :     0.125629  p :     0.351372
      px      :     0.106608
      py      :     0.119135
      dz2     :     0.009109  d :     0.030533
      dxz     :     0.007118
      dyz     :     0.007862
      dx2y2   :     0.003817
      dxy     :     0.002626
 23 H s       :     0.727557  s :     0.727557
      pz      :     0.125645  p :     0.351311
      px      :     0.106482
      py      :     0.119184
      dz2     :     0.009110  d :     0.030533
      dxz     :     0.007119
      dyz     :     0.007870
      dx2y2   :     0.003813
      dxy     :     0.002622
 24 H s       :     0.733319  s :     0.733319
      pz      :     0.090563  p :     0.401853
      px      :     0.161853
      py      :     0.149436
      dz2     :     0.002819  d :     0.030884
      dxz     :     0.009470
      dyz     :     0.000153
      dx2y2   :     0.008432
      dxy     :     0.010010
 25 I s       :     3.683882  s :     3.683882
      pz      :     3.872392  p :    11.056812
      px      :     3.494388
      py      :     3.690031
      dz2     :     2.024273  d :    10.156233
      dxz     :     2.022957
      dyz     :     2.004668
      dx2y2   :     2.047726
      dxy     :     2.056607
      f0      :     0.001249  f :     0.011562
      f+1     :     0.001684
      f-1     :     0.000343
      f+2     :     0.001717
      f-2     :     0.000601
      f+3     :     0.003110
      f-3     :     0.002857


                      *****************************
                      * MAYER POPULATION ANALYSIS *
                      *****************************

  NA   - Mulliken gross atomic population
  ZA   - Total nuclear charge
  QA   - Mulliken gross atomic charge
  VA   - Mayer's total valence
  BVA  - Mayer's bonded valence
  FA   - Mayer's free valence

  ATOM       NA         ZA         QA         VA         BVA        FA
  0 C      5.6513     6.0000     0.3487     3.1822     3.1822     0.0000
  1 C      6.4247     6.0000    -0.4247     3.3893     3.3893     0.0000
  2 C      6.1759     6.0000    -0.1759     3.2216     3.2216     0.0000
  3 C      6.2309     6.0000    -0.2309     2.7855     2.7855     0.0000
  4 H      1.1840     1.0000    -0.1840     1.2487     1.2487    -0.0000
  5 H      0.8404     1.0000     0.1596     0.9733     0.9733     0.0000
  6 H      0.8162     1.0000     0.1838     0.9463     0.9463    -0.0000
  7 H      0.9638     1.0000     0.0362     1.0398     1.0398     0.0000
  8 N      7.0074     7.0000    -0.0074     2.7911     2.7911    -0.0000
  9 C      5.2509     6.0000     0.7491     2.3344     2.3344    -0.0000
 10 C      5.9425     6.0000     0.0575     3.4203     3.4203     0.0000
 11 N      6.9469     7.0000     0.0531     3.0322     3.0322     0.0000
 12 C      6.0057     6.0000    -0.0057     3.6375     3.6375    -0.0000
 13 C      6.1700     6.0000    -0.1700     3.2483     3.2483    -0.0000
 14 C      6.3624     6.0000    -0.3624     3.2809     3.2809     0.0000
 15 H      0.8545     1.0000     0.1455     0.9603     0.9603    -0.0000
 16 H      0.8430     1.0000     0.1570     0.9748     0.9748     0.0000
 17 C      6.2418     6.0000    -0.2418     2.6436     2.6436     0.0000
 18 H      0.9733     1.0000     0.0267     1.0446     1.0446    -0.0000
 19 H      0.8152     1.0000     0.1848     0.9412     0.9412    -0.0000
 20 Pd    17.9185    18.0000     0.0815     2.3469     2.3469     0.0000
 21 C      6.8923     6.0000    -0.8923     3.5890     3.5890     0.0000
 22 H      0.7484     1.0000     0.2516     1.0987     1.0987     0.0000
 23 H      0.7477     1.0000     0.2523     1.0991     1.0991     0.0000
 24 H      0.6650     1.0000     0.3350     1.0503     1.0503    -0.0000
 25 I     25.3273    25.0000    -0.3273     1.0620     1.0620     0.0000

  Mayer bond orders larger than 0.100000
B(  0-C ,  1-C ) :   1.2405 B(  0-C ,  4-H ) :   0.9053 B(  0-C ,  8-N ) :   1.3932 
B(  0-C , 25-I ) :  -0.1909 B(  1-C ,  2-C ) :   1.0892 B(  1-C ,  5-H ) :   1.0514 
B(  2-C ,  3-C ) :   1.1105 B(  2-C ,  6-H ) :   1.0326 B(  3-C ,  7-H ) :   1.2020 
B(  3-C ,  8-N ) :  -0.1606 B(  3-C ,  9-C ) :   0.8041 B(  3-C , 10-C ) :  -0.2063 
B(  3-C , 20-Pd) :   0.1384 B(  4-H ,  8-N ) :  -0.1342 B(  4-H , 25-I ) :   0.3903 
B(  7-H ,  9-C ) :  -0.2710 B(  8-N ,  9-C ) :   1.0930 B(  8-N , 10-C ) :   0.4240 
B(  8-N , 20-Pd) :   0.1558 B(  9-C , 10-C ) :   1.0759 B(  9-C , 17-C ) :  -0.3172 
B(  9-C , 20-Pd) :  -0.1808 B( 10-C , 11-N ) :   1.4723 B( 10-C , 17-C ) :   0.8253 
B( 10-C , 18-H ) :  -0.3001 B( 10-C , 20-Pd) :   0.1539 B( 11-N , 12-C ) :   1.5715 
B( 11-N , 13-C ) :   0.1095 B( 11-N , 17-C ) :  -0.1763 B( 11-N , 20-Pd) :   0.2804 
B( 11-N , 21-C ) :  -0.1026 B( 12-C , 14-C ) :   1.1871 B( 12-C , 15-H ) :   1.0254 
B( 13-C , 14-C ) :   1.1078 B( 13-C , 17-C ) :   1.1015 B( 13-C , 19-H ) :   1.0335 
B( 14-C , 16-H ) :   1.0533 B( 17-C , 18-H ) :   1.2180 B( 17-C , 20-Pd) :   0.1410 
B( 20-Pd, 21-C ) :   0.6619 B( 20-Pd, 25-I ) :   0.8917 B( 21-C , 22-H ) :   0.9894 
B( 21-C , 23-H ) :   0.9893 B( 21-C , 24-H ) :   0.9063 

-------
TIMINGS
-------

Total SCF time: 0 days 0 hours 16 min 56 sec 

Total time                  ....    1016.964 sec
Sum of individual times     ....    1015.559 sec  ( 99.9%)

Fock matrix formation       ....    1006.715 sec  ( 99.0%)
  XC integration            ....      16.072 sec  (  1.6% of F)
    Basis function eval.    ....       1.349 sec  (  8.4% of XC)
    Density eval.           ....       5.673 sec  ( 35.3% of XC)
    XC-Functional eval.     ....       0.153 sec  (  0.9% of XC)
    XC-Potential eval.      ....       7.344 sec  ( 45.7% of XC)
Diagonalization             ....       3.376 sec  (  0.3%)
Density matrix formation    ....       0.135 sec  (  0.0%)
Population analysis         ....       0.131 sec  (  0.0%)
Initial guess               ....       2.667 sec  (  0.3%)
Orbital Transformation      ....       0.000 sec  (  0.0%)
Orbital Orthonormalization  ....       0.000 sec  (  0.0%)
DIIS solution               ....       1.719 sec  (  0.2%)
Grid generation             ....       0.817 sec  (  0.1%)

-------------------------   --------------------
FINAL SINGLE POINT ENERGY      -960.899311533653
-------------------------   --------------------


                            ***************************************
                            *     ORCA property calculations      *
                            ***************************************

                                    ---------------------
                                    Active property flags
                                    ---------------------
   (+) Dipole Moment


------------------------------------------------------------------------------
                       ORCA ELECTRIC PROPERTIES CALCULATION
------------------------------------------------------------------------------

Dipole Moment Calculation                       ... on
Quadrupole Moment Calculation                   ... off
Polarizability Calculation                      ... off
GBWName                                         ... MOR11_ed11.gbw
Electron density file                           ... MOR11_ed11.scfp
The origin for moment calculation is the CENTER OF MASS  = (-0.379126, -0.037662 -0.000076)

-------------
DIPOLE MOMENT
-------------
                                X             Y             Z
Electronic contribution:   -214.28758     -39.83320      -0.01932
Nuclear contribution   :    218.94043      41.00073       0.01934
                        -----------------------------------------
Total Dipole Moment    :      4.65284       1.16753       0.00002
                        -----------------------------------------
Magnitude (a.u.)       :      4.79709
Magnitude (Debye)      :     12.19324



--------------------
Rotational spectrum 
--------------------
 
Rotational constants in cm-1:     0.017794     0.008244     0.005640 
Rotational constants in MHz :   533.441148   247.152748   169.085365 

 Dipole components along the rotational axes: 
x,y,z [a.u.] :    -4.654940     1.159144    -0.000233 
x,y,z [Debye]:   -11.831918     2.946309    -0.000593 

 

Timings for individual modules:

Sum of individual times         ...     1021.713 sec (=  17.029 min)
GTO integral calculation        ...        4.344 sec (=   0.072 min)   0.4 %
SCF iterations                  ...     1017.369 sec (=  16.956 min)  99.6 %
                             ****ORCA TERMINATED NORMALLY****
TOTAL RUN TIME: 0 days 0 hours 17 minutes 2 seconds 314 msec
