
                                 *****************
                                 * O   R   C   A *
                                 *****************

           --- An Ab Initio, DFT and Semiempirical electronic structure package ---

                  #######################################################
                  #                        -***-                        #
                  #          Department of theory and spectroscopy      #
                  #               Directorship: Frank Neese             #
                  #        Max Planck Institute fuer Kohlenforschung    #
                  #                Kaiser Wilhelm Platz 1               #
                  #                 D-45470 Muelheim/Ruhr               #
                  #                      Germany                        #
                  #                                                     #
                  #                  All rights reserved                #
                  #                        -***-                        #
                  #######################################################


                         Program Version 4.2.0 -  RELEASE  -


 With contributions from (in alphabetic order):
   Daniel Aravena         : Magnetic Suceptibility
   Michael Atanasov       : Ab Initio Ligand Field Theory (pilot matlab implementation)
   Alexander A. Auer      : GIAO ZORA, VPT2
   Ute Becker             : Parallelization
   Giovanni Bistoni       : ED, misc. LED, open-shell LED, HFLED
   Martin Brehm           : Molecular dynamics
   Dmytro Bykov           : SCF Hessian
   Vijay G. Chilkuri      : MRCI spin determinant printing, contributions to CSF-ICE
   Dipayan Datta          : RHF DLPNO-CCSD density
   Achintya Kumar Dutta   : EOM-CC, STEOM-CC
   Dmitry Ganyushin       : Spin-Orbit,Spin-Spin,Magnetic field MRCI
   Miquel Garcia          : C-PCM Hessian, Gaussian charge scheme
   Yang Guo               : DLPNO-NEVPT2, CIM, IAO-localization
   Andreas Hansen         : Spin unrestricted coupled pair/coupled cluster methods
   Benjamin Helmich-Paris : CASSCF linear response (MC-RPA)
   Lee Huntington         : MR-EOM, pCC
   Robert Izsak           : Overlap fitted RIJCOSX, COSX-SCS-MP3, EOM
   Christian Kollmar      : KDIIS, OOCD, Brueckner-CCSD(T), CCSD density
   Simone Kossmann        : Meta GGA functionals, TD-DFT gradient, OOMP2, MP2 Hessian
   Martin Krupicka        : AUTO-CI
   Lucas Lang             : DCDCAS
   Dagmar Lenk            : GEPOL surface, SMD
   Dimitrios Liakos       : Extrapolation schemes; Compound Job, initial MDCI parallelization
   Dimitrios Manganas     : Further ROCIS development; embedding schemes
   Dimitrios Pantazis     : SARC Basis sets
   Taras Petrenko         : DFT Hessian,TD-DFT gradient, ASA, ECA, R-Raman, ABS, FL, XAS/XES, NRVS
   Peter Pinski           : DLPNO-MP2, DLPNO-MP2 Gradient
   Christoph Reimann      : Effective Core Potentials
   Marius Retegan         : Local ZFS, SOC
   Christoph Riplinger    : Optimizer, TS searches, QM/MM, DLPNO-CCSD(T), (RO)-DLPNO pert. Triples
   Tobias Risthaus        : Range-separated hybrids, TD-DFT gradient, RPA, STAB
   Michael Roemelt        : Original ROCIS implementation
   Masaaki Saitow         : Open-shell DLPNO-CCSD energy and density
   Barbara Sandhoefer     : DKH picture change effects
   Avijit Sen             : IP-ROCIS
   Kantharuban Sivalingam : CASSCF convergence, NEVPT2, FIC-MRCI
   Bernardo de Souza      : ESD, SOC TD-DFT
   Georgi Stoychev        : AutoAux, RI-MP2 NMR
   Willem Van den Heuvel  : Paramagnetic NMR
   Boris Wezisla          : Elementary symmetry handling
   Frank Wennmohs         : Technical directorship


 We gratefully acknowledge several colleagues who have allowed us to
 interface, adapt or use parts of their codes:
   Stefan Grimme, W. Hujo, H. Kruse,             : VdW corrections, initial TS optimization,
                  C. Bannwarth                     DFT functionals, gCP, sTDA/sTD-DF
   Ed Valeev, F. Pavosevic, A. Kumar             : LibInt (2-el integral package), F12 methods
   Garnet Chan, S. Sharma, J. Yang, R. Olivares  : DMRG
   Ulf Ekstrom                                   : XCFun DFT Library
   Mihaly Kallay                                 : mrcc  (arbitrary order and MRCC methods)
   Andreas Klamt, Michael Diedenhofen            : otool_cosmo (COSMO solvation model)
   Jiri Pittner, Ondrej Demel                    : Mk-CCSD
   Frank Weinhold                                : gennbo (NPA and NBO analysis)
   Christopher J. Cramer and Donald G. Truhlar   : smd solvation model
   Lars Goerigk                                  : TD-DFT with DH, B97 family of functionals
   V. Asgeirsson, H. Jonsson                     : NEB implementation
   FAccTs GmbH                                   : IRC, NEB, NEB-TS, Multilevel, MM, QM/MM, CI optimization
   S Lehtola, MJT Oliveira, MAL Marques          : LibXC Library


 Your calculation uses the libint2 library for the computation of 2-el integrals
 For citations please refer to: http://libint.valeyev.net

 Your ORCA version has been built with support for libXC version: 4.2.3
 For citations please refer to: https://tddft.org/programs/libxc/

 This ORCA versions uses:
   CBLAS   interface :  Fast vector & matrix operations
   LAPACKE interface :  Fast linear algebra routines
   SCALAPACK package :  Parallel linear algebra routines


Your calculation utilizes the DFT-NL dispersion correction.
Cite in your paper:
Vydrov, O. A.; Van Voorhis, T. J. Chem. Phys. 2010, 133, 244103
Hujo, W.; Grimme, S. J. Chem. Theory Comput. 2011, 7, 3866 
   

----- Orbital basis set information -----
Your calculation utilizes the basis: def2-TZVPPD
   F. Weigend and R. Ahlrichs, Phys. Chem. Chem. Phys. 7, 3297 (2005).
   D. Rappoport and F. Furche, J. Chem. Phys. 133 134105 (2010).

----- AuxJK basis set information -----
Your calculation utilizes the auxiliary basis: def2/JK
   H-Ba, Hf-Rn: F. Weigend, J. Comput. Chem. 29, 167 (2008).

cite the ECPs for Ru [Def2-ECP] as follows:
Ce-Yb(ecp-28): M. Dolg, H. Stoll, H.Preuss, J. Chem. Phys., 1989, 90, 1730-1734.
Y-Cd(ecp-28), Hf-Hg(ecp-46): D. Andrae,U. Haeussermann, M. Dolg, H. Stoll, H. Preuss, Theor. Chim. Acta, 1990, 77, 123-141.
In-Sb(ecp-28), Tl-Bi(ecp-46): B. Metz, H. Stoll, M. Dolg, J. Chem. Phys., 2000, 113, 2563-2569.
Te-Xe(ecp-28), Po-Rn(ecp-46): K. A. Peterson, D. Figgen, E. Goll, H. Stoll, M. Dolg, J. Chem. Phys., 2003, 119, 11113-11123.
Rb(ecp-28), Cs(ecp-46): T. Leininger, A. Nicklass, W. Kuechle, H. Stoll, M. Dolg, A. Bergner, Chem. Phys. Lett., 1996, 255, 274-280.
Sr(ecp-28), Ba(ecp-46): M. Kaupp, P. V. Schleyer, H. Stoll and H. Preuss, J. Chem. Phys., 1991, 94, 1360-1366.
La(ecp-46): M. Dolg, H. Stoll, A. Savin, H. Preuss, Theor. Chim. Acta, 1989, 75, 173-194.
Lu(ecp-28): X. Cao, M. Dolg, J. Chem. Phys., 2001, 115, 7348-7355.

ECP parameters for Ru [Def2-ECP] have been obtained from:
TURBOMOLE (7.0.2)

================================================================================
                                        WARNINGS
                       Please study these warnings very carefully!
================================================================================


INFO   : the flag for use of LIBINT has been found!

================================================================================
                                       INPUT FILE
================================================================================
NAME = MOR14_ed26.in
|  1> #
|  2> # MOR14_ed26 wB97M-V/Def2-TZVPPD
|  3> #
|  4> ! wb97m-v def2-tzvppd def2/jk grid4 nofinalgrid
|  5> 
|  6> *xyz 0 1
|  7> Ru      -0.064344   -0.175682   -0.012222 
|  8> C        1.546320    1.136494   -0.983353 
|  9> C        1.182588    1.622095    0.326342 
| 10> C        2.076803   -0.497674    0.579629 
| 11> C        2.043947   -0.183601   -0.846926 
| 12> C        1.561141    0.611266    1.297590 
| 13> C        1.492783    1.931783   -2.249249 
| 14> H        0.696535    2.680581   -2.225612 
| 15> H        1.338709    1.291322   -3.121811 
| 16> H        2.442862    2.463439   -2.390633 
| 17> C        2.565540   -1.075324   -1.928175 
| 18> H        2.249514   -0.728507   -2.915600 
| 19> H        2.192282   -2.094362   -1.786204 
| 20> H        3.663236   -1.101421   -1.912436 
| 21> C        2.692583   -1.723434    1.172166 
| 22> H        3.783501   -1.598681    1.210971 
| 23> H        2.457484   -2.606090    0.574387 
| 24> H        2.333089   -1.899010    2.188816 
| 25> C        1.552612    0.773239    2.786124 
| 26> H        2.502734    1.205302    3.127194 
| 27> H        1.421923   -0.187720    3.289969 
| 28> H        0.754394    1.442873    3.118115 
| 29> C        0.799428    3.031668    0.660505 
| 30> H        1.693878    3.613580    0.920796 
| 31> H        0.118442    3.075561    1.514596 
| 32> H        0.315927    3.528553   -0.183556 
| 33> Cl      -0.006885   -2.617235   -0.279085 
| 34> C       -1.774511   -0.580489   -1.372668 
| 35> C       -1.428717    0.775607   -1.463600 
| 36> C       -2.230150    1.901113   -0.842184 
| 37> C       -2.597560    1.596364    0.619137 
| 38> C       -1.528383    0.747182    1.301561 
| 39> C       -1.615603   -0.659023    1.435525 
| 40> C       -2.738883   -1.472042    0.832207 
| 41> C       -3.001399   -1.117797   -0.653050 
| 42> H       -3.131417    2.097786   -1.444322 
| 43> H       -3.561641    1.080890    0.673312 
| 44> H       -1.631000    2.816891   -0.882167 
| 45> H       -3.816216   -0.389170   -0.734954 
| 46> H       -1.353755   -1.240657   -2.123162 
| 47> H       -0.836828    1.063474   -2.328552 
| 48> H       -3.337183   -2.018298   -1.174989 
| 49> H       -2.460187   -2.525401    0.898608 
| 50> H       -1.127422   -1.117347    2.293712 
| 51> H       -3.660878   -1.338434    1.419672 
| 52> H       -2.720080    2.533691    1.172959 
| 53> H       -0.970929    1.269583    2.073632 
| 54> *
| 55> 
| 56> %maxcore 5000
| 57> 
| 58> %pal
| 59> nprocs = 24
| 60> end
| 61> 
| 62> 
| 63>                          ****END OF INPUT****
================================================================================

                       ****************************
                       * Single Point Calculation *
                       ****************************

---------------------------------
CARTESIAN COORDINATES (ANGSTROEM)
---------------------------------
  Ru    -0.064344   -0.175682   -0.012222
  C      1.546320    1.136494   -0.983353
  C      1.182588    1.622095    0.326342
  C      2.076803   -0.497674    0.579629
  C      2.043947   -0.183601   -0.846926
  C      1.561141    0.611266    1.297590
  C      1.492783    1.931783   -2.249249
  H      0.696535    2.680581   -2.225612
  H      1.338709    1.291322   -3.121811
  H      2.442862    2.463439   -2.390633
  C      2.565540   -1.075324   -1.928175
  H      2.249514   -0.728507   -2.915600
  H      2.192282   -2.094362   -1.786204
  H      3.663236   -1.101421   -1.912436
  C      2.692583   -1.723434    1.172166
  H      3.783501   -1.598681    1.210971
  H      2.457484   -2.606090    0.574387
  H      2.333089   -1.899010    2.188816
  C      1.552612    0.773239    2.786124
  H      2.502734    1.205302    3.127194
  H      1.421923   -0.187720    3.289969
  H      0.754394    1.442873    3.118115
  C      0.799428    3.031668    0.660505
  H      1.693878    3.613580    0.920796
  H      0.118442    3.075561    1.514596
  H      0.315927    3.528553   -0.183556
  Cl    -0.006885   -2.617235   -0.279085
  C     -1.774511   -0.580489   -1.372668
  C     -1.428717    0.775607   -1.463600
  C     -2.230150    1.901113   -0.842184
  C     -2.597560    1.596364    0.619137
  C     -1.528383    0.747182    1.301561
  C     -1.615603   -0.659023    1.435525
  C     -2.738883   -1.472042    0.832207
  C     -3.001399   -1.117797   -0.653050
  H     -3.131417    2.097786   -1.444322
  H     -3.561641    1.080890    0.673312
  H     -1.631000    2.816891   -0.882167
  H     -3.816216   -0.389170   -0.734954
  H     -1.353755   -1.240657   -2.123162
  H     -0.836828    1.063474   -2.328552
  H     -3.337183   -2.018298   -1.174989
  H     -2.460187   -2.525401    0.898608
  H     -1.127422   -1.117347    2.293712
  H     -3.660878   -1.338434    1.419672
  H     -2.720080    2.533691    1.172959
  H     -0.970929    1.269583    2.073632

----------------------------
CARTESIAN COORDINATES (A.U.)
----------------------------
  NO LB      ZA    FRAG     MASS         X           Y           Z
   0 Ru   16.0000*   0   101.070   -0.121593   -0.331991   -0.023096
   1 C     6.0000    0    12.011    2.922121    2.147662   -1.858268
   2 C     6.0000    0    12.011    2.234767    3.065315    0.616697
   3 C     6.0000    0    12.011    3.924589   -0.940468    1.095340
   4 C     6.0000    0    12.011    3.862500   -0.346956   -1.600458
   5 C     6.0000    0    12.011    2.950129    1.155125    2.452090
   6 C     6.0000    0    12.011    2.820951    3.650541   -4.250465
   7 H     1.0000    0     1.008    1.316260    5.065564   -4.205797
   8 H     1.0000    0     1.008    2.529793    2.440245   -5.899368
   9 H     1.0000    0     1.008    4.616340    4.655225   -4.517642
  10 C     6.0000    0    12.011    4.848168   -2.032068   -3.643723
  11 H     1.0000    0     1.008    4.250965   -1.376679   -5.509686
  12 H     1.0000    0     1.008    4.142813   -3.957771   -3.375436
  13 H     1.0000    0     1.008    6.922513   -2.081384   -3.613980
  14 C     6.0000    0    12.011    5.088244   -3.256818    2.215073
  15 H     1.0000    0     1.008    7.149781   -3.021069    2.288404
  16 H     1.0000    0     1.008    4.643972   -4.924796    1.085434
  17 H     1.0000    0     1.008    4.408899   -3.588609    4.136263
  18 C     6.0000    0    12.011    2.934011    1.461210    5.265011
  19 H     1.0000    0     1.008    4.729482    2.277691    5.909540
  20 H     1.0000    0     1.008    2.687045   -0.354739    6.217140
  21 H     1.0000    0     1.008    1.425598    2.726635    5.892383
  22 C     6.0000    0    12.011    1.510700    5.729022    1.248174
  23 H     1.0000    0     1.008    3.200966    6.828677    1.740052
  24 H     1.0000    0     1.008    0.223823    5.811968    2.862172
  25 H     1.0000    0     1.008    0.597016    6.667999   -0.346871
  26 Cl   17.0000    0    35.453   -0.013011   -4.945857   -0.527394
  27 C     6.0000    0    12.011   -3.353340   -1.096965   -2.593967
  28 C     6.0000    0    12.011   -2.699884    1.465685   -2.765803
  29 C     6.0000    0    12.011   -4.214373    3.592583   -1.591497
  30 C     6.0000    0    12.011   -4.908677    3.016691    1.169999
  31 C     6.0000    0    12.011   -2.888225    1.411969    2.459594
  32 C     6.0000    0    12.011   -3.053047   -1.245373    2.712749
  33 C     6.0000    0    12.011   -5.175739   -2.781756    1.572643
  34 C     6.0000    0    12.011   -5.671822   -2.112330   -1.234086
  35 H     1.0000    0     1.008   -5.917521    3.964241   -2.729373
  36 H     1.0000    0     1.008   -6.730526    2.042586    1.272375
  37 H     1.0000    0     1.008   -3.082143    5.323153   -1.667054
  38 H     1.0000    0     1.008   -7.211603   -0.735425   -1.388862
  39 H     1.0000    0     1.008   -2.558226   -2.344502   -4.012195
  40 H     1.0000    0     1.008   -1.581376    2.009675   -4.400326
  41 H     1.0000    0     1.008   -6.306362   -3.814030   -2.220407
  42 H     1.0000    0     1.008   -4.649080   -4.772316    1.698123
  43 H     1.0000    0     1.008   -2.130519   -2.111480    4.334488
  44 H     1.0000    0     1.008   -6.918057   -2.529274    2.682791
  45 H     1.0000    0     1.008   -5.140206    4.787982    2.216571
  46 H     1.0000    0     1.008   -1.834790    2.399164    3.918597
* core charge reduced due to ECP

--------------------------------
INTERNAL COORDINATES (ANGSTROEM)
--------------------------------
 Ru     0   0   0     0.000000000000     0.00000000     0.00000000
 C      1   0   0     2.293281446974     0.00000000     0.00000000
 C      2   1   0     1.443402332009    68.36272180     0.00000000
 C      1   2   3     2.244655191755    61.56130184   278.88233492
 C      2   1   3     1.417355201240    70.90767887   119.69047010
 C      4   1   2     1.418140761478    71.00206706    80.81739060
 C      2   1   3     1.495942340702   129.59831823   241.21106963
 H      7   2   1     1.093283142684   111.83206440    59.23937258
 H      7   2   1     1.093294806464   111.65275576   297.56304777
 H      7   2   1     1.097860484776   109.60033498   178.40212829
 C      5   2   1     1.495435911826   127.46244564   123.03479324
 H     11   5   2     1.093234922050   111.28814169   342.33770441
 H     11   5   2     1.094493373598   110.02627288   222.29537860
 H     11   5   2     1.098118972583   110.63807912   102.44604329
 C      4   1   2     1.494246526638   127.97579921   202.39005459
 H     15   4   1     1.098713439327   109.27116241   172.11190762
 H     15   4   1     1.091646869174   110.93917151    51.95303718
 H     15   4   1     1.092538370178   111.42180116   291.60538210
 C      6   4   1     1.497344805222   126.15342628   124.57193803
 H     19   6   4     1.098061471755   110.26841167    85.90734056
 H     19   6   4     1.092877668555   111.33856197   326.25335473
 H     19   6   4     1.093517120836   111.85213757   205.14719153
 C      3   2   1     1.498456718927   125.67984263   230.59750296
 H     23   3   2     1.098368691708   110.05902698   270.90079480
 H     23   3   2     1.093224571589   111.79421720   151.49850839
 H     23   3   2     1.092294324780   111.64028998    30.33460964
 Cl     1   2   3     2.456765851533   120.41201345   218.71916022
 C      1   2   3     2.222465566450   112.67135192   131.19623551
 C     28   1   2     1.402440187771    70.96384791   316.06890727
 C     29  28   1     1.514997179727   124.14792320   254.90401730
 C     30  29  28     1.537309704042   111.65759980    47.52342252
 C     31  30  29     1.526418043076   111.58342661    31.58478783
 C     32  31  30     1.415261878142   123.49845665   262.69114951
 C     33  32  31     1.512200536267   122.83436769     4.17033904
 C     28   1   2     1.520461810547   113.30130880   195.43993823
 H     30  29  28     1.101604577542   109.95165936   283.77216171
 H     31  30  29     1.094577795253   110.54270185   269.54793262
 H     30  29  28     1.095093013434   108.47307601   168.08212482
 H     35  28   1     1.096144294258   109.24180883   114.98822098
 H     28   1   2     1.084480817625   103.64744398    69.89814302
 H     29  28   1     1.086895560905   116.22969447   101.15209273
 H     35  28   1     1.093651345438   108.23088149   230.52178431
 H     34  33  32     1.091625272746   107.75108057   168.25504834
 H     33  32  31     1.088515734708   117.73273449   209.24569279
 H     34  33  32     1.101381407104   110.10864504   285.04910266
 H     31  30  29     1.095587451102   109.73332571   152.71459867
 H     32  31  30     1.086163613807   114.18695060   111.21594198

---------------------------
INTERNAL COORDINATES (A.U.)
---------------------------
 Ru     0   0   0     0.000000000000     0.00000000     0.00000000
 C      1   0   0     4.333673882783     0.00000000     0.00000000
 C      2   1   0     2.727635108561    68.36272180     0.00000000
 C      1   2   3     4.241783577502    61.56130184   278.88233492
 C      2   1   3     2.678413164833    70.90767887   119.69047010
 C      4   1   2     2.679897658544    71.00206706    80.81739060
 C      2   1   3     2.826921336065   129.59831823   241.21106963
 H      7   2   1     2.066005726506   111.83206440    59.23937258
 H      7   2   1     2.066027767855   111.65275576   297.56304777
 H      7   2   1     2.074655649481   109.60033498   178.40212829
 C      5   2   1     2.825964324182   127.46244564   123.03479324
 H     11   5   2     2.065914602714   111.28814169   342.33770441
 H     11   5   2     2.068292731491   110.02627288   222.29537860
 H     11   5   2     2.075144120644   110.63807912   102.44604329
 C      4   1   2     2.823716711908   127.97579921   202.39005459
 H     15   4   1     2.076267499987   109.27116241   172.11190762
 H     15   4   1     2.062913617692   110.93917151    51.95303718
 H     15   4   1     2.064598310438   111.42180116   291.60538210
 C      6   4   1     2.829571609920   126.15342628   124.57193803
 H     19   6   4     2.075035459828   110.26841167    85.90734056
 H     19   6   4     2.065239491448   111.33856197   326.25335473
 H     19   6   4     2.066447881134   111.85213757   205.14719153
 C      3   2   1     2.831672822307   125.67984263   230.59750296
 H     23   3   2     2.075616021402   110.05902698   270.90079480
 H     23   3   2     2.065895043177   111.79421720   151.49850839
 H     23   3   2     2.064137131471   111.64028998    30.33460964
 Cl     1   2   3     4.642614634567   120.41201345   218.71916022
 C      1   2   3     4.199851262660   112.67135192   131.19623551
 C     28   1   2     2.650227874093    70.96384791   316.06890727
 C     29  28   1     2.862929763347   124.14792320   254.90401730
 C     30  29  28     2.905094323659   111.65759980    47.52342252
 C     31  30  29     2.884512067290   111.58342661    31.58478783
 C     32  31  30     2.674457357467   123.49845665   262.69114951
 C     33  32  31     2.857644873113   122.83436769     4.17033904
 C     28   1   2     2.873256419020   113.30130880   195.43993823
 H     30  29  28     2.081730959429   109.95165936   283.77216171
 H     31  30  29     2.068452265300   110.54270185   269.54793262
 H     30  29  28     2.069425886562   108.47307601   168.08212482
 H     35  28   1     2.071412519408   109.24180883   114.98822098
 H     28   1   2     2.049371742802   103.64744398    69.89814302
 H     29  28   1     2.053934946284   116.22969447   101.15209273
 H     35  28   1     2.066701528872   108.23088149   230.52178431
 H     34  33  32     2.062872806357   107.75108057   168.25504834
 H     33  32  31     2.056996631061   117.73273449   209.24569279
 H     34  33  32     2.081309228419   110.10864504   285.04910266
 H     31  30  29     2.070360238344   109.73332571   152.71459867
 H     32  31  30     2.052551766725   114.18695060   111.21594198

---------------------
BASIS SET INFORMATION
---------------------
There are 4 groups of distinct atoms

 Group   1 Type Ru  : 7s7p5d2f1g contracted to 6s4p3d2f1g pattern {211111/4111/311/11/1}
 Group   2 Type C   : 12s6p3d1f contracted to 6s3p3d1f pattern {621111/411/111/1}
 Group   3 Type H   : 5s3p1d contracted to 3s3p1d pattern {311/111/1}
 Group   4 Type Cl  : 15s10p4d1f contracted to 6s6p4d1f pattern {732111/511111/1111/1}

Atom   0Ru   basis set group =>   1
Atom   1C    basis set group =>   2
Atom   2C    basis set group =>   2
Atom   3C    basis set group =>   2
Atom   4C    basis set group =>   2
Atom   5C    basis set group =>   2
Atom   6C    basis set group =>   2
Atom   7H    basis set group =>   3
Atom   8H    basis set group =>   3
Atom   9H    basis set group =>   3
Atom  10C    basis set group =>   2
Atom  11H    basis set group =>   3
Atom  12H    basis set group =>   3
Atom  13H    basis set group =>   3
Atom  14C    basis set group =>   2
Atom  15H    basis set group =>   3
Atom  16H    basis set group =>   3
Atom  17H    basis set group =>   3
Atom  18C    basis set group =>   2
Atom  19H    basis set group =>   3
Atom  20H    basis set group =>   3
Atom  21H    basis set group =>   3
Atom  22C    basis set group =>   2
Atom  23H    basis set group =>   3
Atom  24H    basis set group =>   3
Atom  25H    basis set group =>   3
Atom  26Cl   basis set group =>   4
Atom  27C    basis set group =>   2
Atom  28C    basis set group =>   2
Atom  29C    basis set group =>   2
Atom  30C    basis set group =>   2
Atom  31C    basis set group =>   2
Atom  32C    basis set group =>   2
Atom  33C    basis set group =>   2
Atom  34C    basis set group =>   2
Atom  35H    basis set group =>   3
Atom  36H    basis set group =>   3
Atom  37H    basis set group =>   3
Atom  38H    basis set group =>   3
Atom  39H    basis set group =>   3
Atom  40H    basis set group =>   3
Atom  41H    basis set group =>   3
Atom  42H    basis set group =>   3
Atom  43H    basis set group =>   3
Atom  44H    basis set group =>   3
Atom  45H    basis set group =>   3
Atom  46H    basis set group =>   3
----------------------------------
AUXILIARY/JK BASIS SET INFORMATION
----------------------------------
There are 4 groups of distinct atoms

 Group   1 Type Ru  : 13s12p10d9f6g3h2i contracted to 11s10p9d8f6g3h2i pattern {31111111111/3111111111/211111111/21111111/111111/111/11}
 Group   2 Type C   : 14s10p6d2f1g contracted to 10s8p5d1f1g pattern {5111111111/31111111/21111/2/1}
 Group   3 Type H   : 4s2p2d contracted to 2s2p2d pattern {31/11/11}
 Group   4 Type Cl  : 16s12p10d4f1g contracted to 13s11p9d4f1g pattern {4111111111111/21111111111/211111111/1111/1}

Atom   0Ru   basis set group =>   1
Atom   1C    basis set group =>   2
Atom   2C    basis set group =>   2
Atom   3C    basis set group =>   2
Atom   4C    basis set group =>   2
Atom   5C    basis set group =>   2
Atom   6C    basis set group =>   2
Atom   7H    basis set group =>   3
Atom   8H    basis set group =>   3
Atom   9H    basis set group =>   3
Atom  10C    basis set group =>   2
Atom  11H    basis set group =>   3
Atom  12H    basis set group =>   3
Atom  13H    basis set group =>   3
Atom  14C    basis set group =>   2
Atom  15H    basis set group =>   3
Atom  16H    basis set group =>   3
Atom  17H    basis set group =>   3
Atom  18C    basis set group =>   2
Atom  19H    basis set group =>   3
Atom  20H    basis set group =>   3
Atom  21H    basis set group =>   3
Atom  22C    basis set group =>   2
Atom  23H    basis set group =>   3
Atom  24H    basis set group =>   3
Atom  25H    basis set group =>   3
Atom  26Cl   basis set group =>   4
Atom  27C    basis set group =>   2
Atom  28C    basis set group =>   2
Atom  29C    basis set group =>   2
Atom  30C    basis set group =>   2
Atom  31C    basis set group =>   2
Atom  32C    basis set group =>   2
Atom  33C    basis set group =>   2
Atom  34C    basis set group =>   2
Atom  35H    basis set group =>   3
Atom  36H    basis set group =>   3
Atom  37H    basis set group =>   3
Atom  38H    basis set group =>   3
Atom  39H    basis set group =>   3
Atom  40H    basis set group =>   3
Atom  41H    basis set group =>   3
Atom  42H    basis set group =>   3
Atom  43H    basis set group =>   3
Atom  44H    basis set group =>   3
Atom  45H    basis set group =>   3
Atom  46H    basis set group =>   3
-------------------------
ECP PARAMETER INFORMATION
-------------------------

 Group 1, Type Ru ECP Def2-ECP (replacing 28 core electrons, lmax=3)

Atom   0Ru   ECP group =>   1



           ************************************************************
           *        Program running with 24 parallel MPI-processes    *
           *              working on a common directory               *
           ************************************************************
------------------------------------------------------------------------------
                           ORCA GTO INTEGRAL CALCULATION
------------------------------------------------------------------------------

                         BASIS SET STATISTICS AND STARTUP INFO

 # of primitive gaussian shells          ...  691
 # of primitive gaussian functions       ... 1597
 # of contracted shells                  ...  456
 # of contracted basis functions         ... 1232
 Highest angular momentum                ...    4
 Maximum contraction depth               ...    7
 Integral package used                   ... LIBINT
 Integral threshhold            Thresh   ...  1.000e-10
 Primitive cut-off              TCut     ...  1.000e-11


------------------------------ INTEGRAL EVALUATION ----------------------------


 * One electron integrals 

   ECP integrals                         ... done
 Pre-screening matrix                    ... done
 Shell pair data                         ... done (   0.025 sec)



           ************************************************************
           *        Program running with 24 parallel MPI-processes    *
           *              working on a common directory               *
           ************************************************************
-------------------------------------------------------------------------------
                                 ORCA SCF
-------------------------------------------------------------------------------

------------
SCF SETTINGS
------------
Hamiltonian:
 Density Functional     Method          .... DFT(GTOs)
 Exchange Functional    Exchange        .... WB97M-V
 Correlation Functional Correlation     .... WB97M-V
 Gradients option       PostSCFGGA      .... off
 Hybrid DFT is turned on
   Fraction HF Exchange ScalHFX         ....  0.150000
   Scaling of DF-GGA-X  ScalDFX         ....  0.000000
   Scaling of DF-GGA-C  ScalDFC         ....  1.000000
   Scaling of DF-LDA-C  ScalLDAC        ....  1.000000
   Perturbative correction              ....  0.000000
   Density functional embedding theory  .... OFF
 Long-range corrected/Screened/Range-Separated Hybrid DFT is turned on
   Amount of maximum screened exact exchange              ....  0.850000
   Range separation parameter mu (erf(mu*r12)/r12)        ....  0.300000
   NL short-range parameter             ....  6.000000
   NL long-range parameter              ....  0.010000


General Settings:
 Integral files         IntName         .... MOR14_ed26
 Hartree-Fock type      HFTyp           .... RHF
 Total Charge           Charge          ....    0
 Multiplicity           Mult            ....    1
 Number of Electrons    NEL             ....  168
 Basis Dimension        Dim             .... 1232
 Nuclear Repulsion      ENuc            ....   2177.8911490975 Eh

Convergence Acceleration:
 DIIS                   CNVDIIS         .... on
   Start iteration      DIISMaxIt       ....    12
   Startup error        DIISStart       ....  0.200000
   # of expansion vecs  DIISMaxEq       ....     5
   Bias factor          DIISBfac        ....   1.050
   Max. coefficient     DIISMaxC        ....  10.000
 Newton-Raphson         CNVNR           .... off
 SOSCF                  CNVSOSCF        .... off
 Level Shifting         CNVShift        .... on
   Level shift para.    LevelShift      ....    0.2500
   Turn off err/grad.   ShiftErr        ....    0.0010
 Zerner damping         CNVZerner       .... off
 Static damping         CNVDamp         .... on
   Fraction old density DampFac         ....    0.7000
   Max. Damping (<1)    DampMax         ....    0.9800
   Min. Damping (>=0)   DampMin         ....    0.0000
   Turn off err/grad.   DampErr         ....    0.1000
 Fernandez-Rico         CNVRico         .... off

SCF Procedure:
 Maximum # iterations   MaxIter         ....   125
 SCF integral mode      SCFMode         .... Direct
   Integral package                     .... LIBINT
 Reset frequency        DirectResetFreq ....    20
 Integral Threshold     Thresh          ....  1.000e-10 Eh
 Primitive CutOff       TCut            ....  1.000e-11 Eh

Convergence Tolerance:
 Convergence Check Mode ConvCheckMode   .... Total+1el-Energy
 Convergence forced     ConvForced      .... 0
 Energy Change          TolE            ....  1.000e-06 Eh
 1-El. energy change                    ....  1.000e-03 Eh
 DIIS Error             TolErr          ....  1.000e-06


Diagonalization of the overlap matrix:
Smallest eigenvalue                        ... 1.424e-07
Time for diagonalization                   ...    0.255 sec
Threshold for overlap eigenvalues          ... 1.000e-08
Number of eigenvalues below threshold      ... 0
Time for construction of square roots      ...    0.171 sec
Total time needed                          ...    0.431 sec

-------------------
DFT GRID GENERATION
-------------------

General Integration Accuracy     IntAcc      ...  4.670
Radial Grid Type                 RadialGrid  ... Gauss-Chebyshev
Angular Grid (max. acc.)         AngularGrid ... Lebedev-302
Angular grid pruning method      GridPruning ... 3 (G Style)
Weight generation scheme         WeightScheme... Becke
Basis function cutoff            BFCut       ...    1.0000e-10
Integration weight cutoff        WCut        ...    1.0000e-14
Grids for H and He will be reduced by one unit

# of grid points (after initial pruning)     ... 220706 (   0.0 sec)
# of grid points (after weights+screening)   ... 185140 (   0.2 sec)
nearest neighbour list constructed           ...    0.0 sec
Grid point re-assignment to atoms done       ...    0.0 sec
Grid point division into batches done        ...    0.6 sec
Reduced shell lists constructed in    0.9 sec

Total number of grid points                  ...   185140
Total number of batches                      ...     2918
Average number of points per batch           ...       63
Average number of grid points per atom       ...     3939
Average number of shells per batch           ...   312.32 (68.49%)
Average number of basis functions per batch  ...   855.75 (69.46%)
Average number of large shells per batch     ...   238.80 (76.46%)
Average number of large basis fcns per batch ...   649.18 (75.86%)
Maximum spatial batch extension              ...   1.98,  2.08,  1.84 au
Average spatial batch extension              ...   0.04,  0.04,  0.04 au

Time for grid setup =    1.147 sec

------------------------------
INITIAL GUESS: MODEL POTENTIAL
------------------------------
Loading Hartree-Fock densities                     ... done
  calling /sw/apps/orca/orca_4_2_0_linux_x86-64_openmpi314/orca MOR14_ed26_atom44.inp > MOR14_ed26_atom44.out in order to generate an atomic fitting density for atom 0 (Ru with ECP) on-the-fly... 
    atom 0 (Ru), assumed electronic state with S=5: 1s2 2s2 2p6 3s2 3p6 4s2 3d10 4p6 5s2 4d6           ... done
Calculating cut-offs                               ... done
Setting up the integral package                    ... done
Initializing the effective Hamiltonian             ... done
Starting the Coulomb interaction                   ... done (   0.3 sec)
Reading the grid                                   ... done
Mapping shells                                     ... done
Starting the XC term evaluation                    ... done (   1.1 sec)
  promolecular density results
     # of electrons  =    195.985915939
     EX              =   -256.296218234
     EC              =     -7.513843562
     EX+EC           =   -263.810061796
Transforming the Hamiltonian                       ... done (   0.1 sec)
Diagonalizing the Hamiltonian                      ... done (   0.2 sec)
Back transforming the eigenvectors                 ... done (   0.1 sec)
Now organizing SCF variables                       ... done
                      ------------------
                      INITIAL GUESS DONE (   4.3 sec)
                      ------------------
--------------
SCF ITERATIONS
--------------
ITER       Energy         Delta-E        Max-DP      RMS-DP      [F,P]     Damp
               ***  Starting incremental Fock matrix formation  ***
  0  -1256.9527731432   0.000000000000 4.39589318  0.01026886  0.3895316 0.7000
  1  -1257.3219698335  -0.369196690216 1.67145734  0.00521504  0.3138938 0.7000
  2  -1257.4701560472  -0.148186213768 0.90770606  0.00357203  0.2353003 0.7000
                               ***Turning on DIIS***
  3  -1257.5693324102  -0.099176362970 0.59930417  0.00289088  0.1637796 0.7000
  4  -1257.6376091791  -0.068276768945 0.43971429  0.00202714  0.1110572 0.7000
  5  -1257.6850141243  -0.047404945153 1.93950859  0.00634997  0.0786876 0.0000
  6  -1257.7975684531  -0.112554328859 0.69399874  0.00150960  0.0048587 0.0000
  7  -1257.7981532866  -0.000584833413 0.69514761  0.00190955  0.0033078 0.0000
  8  -1257.7984242008  -0.000270914289 1.17143305  0.00228782  0.0020205 0.0000
  9  -1257.7985709009  -0.000146700050 0.37266017  0.00102978  0.0016338 0.0000
 10  -1257.7986219053  -0.000051004402 0.75403343  0.00211166  0.0011876 0.0000
 11  -1257.7986411220  -0.000019216725 0.83103904  0.00366856  0.0006793 0.0000
 12  -1257.7986486558  -0.000007533746 0.45827963  0.00198938  0.0003863 0.0000
 13  -1257.7986503690  -0.000001713244 0.48504040  0.00183750  0.0002164 0.0000
 14  -1257.7986506266  -0.000000257554 0.76114559  0.00257299  0.0001402 0.0000
 15  -1257.7986505838   0.000000042777 0.72187195  0.00184454  0.0000640 0.0000
 16  -1257.7986507047  -0.000000120883 0.75422184  0.00192379  0.0000794 0.0000
                 **** Energy Check signals convergence ****

               *****************************************************
               *                     SUCCESS                       *
               *           SCF CONVERGED AFTER  17 CYCLES          *
               *****************************************************


Setting up the DFT-NL grid :

General Integration Accuracy     IntAcc      ...  4.340
Radial Grid Type                 RadialGrid  ... Gauss-Chebyshev
Angular Grid (max. acc.)         AngularGrid ... Lebedev-110
Angular grid pruning method      GridPruning ... 3 (G Style)
Weight generation scheme         WeightScheme... Becke
Basis function cutoff            BFCut       ...    1.0000e-10
Integration weight cutoff        WCut        ...    1.0000e-14
Grids for H and He will be reduced by one unit

# of grid points (after initial pruning)     ...  56370 (   0.0 sec)
# of grid points (after weights+screening)   ...  48502 (   0.0 sec)
nearest neighbour list constructed           ...    0.0 sec
Grid point re-assignment to atoms done       ...    0.0 sec
Grid point division into batches done        ...    0.0 sec
Reduced shell lists constructed in    0.1 sec

Total number of grid points                  ...    48502
Total number of batches                      ...      781
Average number of points per batch           ...       62
Average number of grid points per atom       ...     1032
Average number of shells per batch           ...   317.68 (69.67%)
Average number of basis functions per batch  ...   876.68 (71.16%)
Average number of large shells per batch     ...   246.03 (77.45%)
Average number of large basis fcns per batch ...   673.74 (76.85%)
Maximum spatial batch extension              ...   3.03,  2.91,  2.27 au
Average spatial batch extension              ...   0.06,  0.06,  0.06 au

Final grid set up in    0.2 sec

-------------------------------------------------------------------------------
                         DFT-NL dispersion correction                          
-------------------------------------------------------------------------------

SC Energy -1257.798650923 
NL    Energy 0.587041765 
SC+NL Energy -1257.211609158 
NL done in    1.0 sec
-------------------------------------------------------------------------------

----------------
TOTAL SCF ENERGY
----------------

Total Energy       :        -1257.21160916 Eh          -34210.46711 eV

Components:
Nuclear Repulsion  :         2177.89114910 Eh           59263.43106 eV
Electronic Energy  :        -3435.10275826 Eh          -93473.89817 eV
One Electron Energy:        -6083.52146870 Eh         -165541.03511 eV
Two Electron Energy:         2648.41871045 Eh           72067.13693 eV

Virial components:
Potential Energy   :        -2450.30726842 Eh          -66676.25053 eV
Kinetic Energy     :         1193.09565926 Eh           32465.78342 eV
Virial Ratio       :            2.05373915


DFT components:
N(Alpha)           :       83.999755250325 electrons
N(Beta)            :       83.999755250325 electrons
N(Total)           :      167.999510500650 electrons
E(X)               :      -97.990871022751 Eh       
E(C)               :       -5.443333861133 Eh       
NL Energy, E(C,NL) :        0.587041765341 Eh       
E(XC)              :     -102.847163118543 Eh       
DFET-embed. en.    :        0.000000000000 Eh       

---------------
SCF CONVERGENCE
---------------

  Last Energy change         ...   -2.1857e-07  Tolerance :   1.0000e-06
  Last MAX-Density change    ...    1.0362e+00  Tolerance :   1.0000e-05
  Last RMS-Density change    ...    2.3012e-03  Tolerance :   1.0000e-06
  Last DIIS Error            ...    1.4867e-05  Tolerance :   1.0000e-06

             **** THE GBW FILE WAS UPDATED (MOR14_ed26.gbw) ****
             **** DENSITY FILE WAS UPDATED (MOR14_ed26.scfp) ****
             **** ENERGY FILE WAS UPDATED (MOR14_ed26.en.tmp) ****
             **** THE GBW FILE WAS UPDATED (MOR14_ed26.gbw) ****
             **** DENSITY FILE WAS UPDATED (MOR14_ed26.scfp) ****
----------------
ORBITAL ENERGIES
----------------

  NO   OCC          E(Eh)            E(eV) 
   0   2.0000    -101.776239     -2769.4723 
   1   2.0000     -10.381772      -282.5024 
   2   2.0000     -10.377012      -282.3729 
   3   2.0000     -10.374989      -282.3178 
   4   2.0000     -10.373939      -282.2892 
   5   2.0000     -10.369319      -282.1635 
   6   2.0000     -10.358125      -281.8589 
   7   2.0000     -10.357851      -281.8514 
   8   2.0000     -10.355918      -281.7989 
   9   2.0000     -10.354438      -281.7586 
  10   2.0000     -10.353875      -281.7433 
  11   2.0000     -10.348508      -281.5972 
  12   2.0000     -10.348444      -281.5955 
  13   2.0000     -10.345620      -281.5186 
  14   2.0000     -10.344515      -281.4886 
  15   2.0000     -10.337895      -281.3084 
  16   2.0000     -10.335808      -281.2516 
  17   2.0000     -10.335329      -281.2386 
  18   2.0000     -10.330110      -281.0966 
  19   2.0000      -9.549238      -259.8480 
  20   2.0000      -7.251228      -197.3159 
  21   2.0000      -7.247031      -197.2017 
  22   2.0000      -7.246879      -197.1976 
  23   2.0000      -3.150971       -85.7423 
  24   2.0000      -2.001804       -54.4719 
  25   2.0000      -1.984842       -54.0103 
  26   2.0000      -1.976488       -53.7830 
  27   2.0000      -1.029971       -28.0269 
  28   2.0000      -0.960213       -26.1287 
  29   2.0000      -0.918309       -24.9885 
  30   2.0000      -0.911946       -24.8153 
  31   2.0000      -0.898525       -24.4501 
  32   2.0000      -0.891587       -24.2613 
  33   2.0000      -0.854854       -23.2618 
  34   2.0000      -0.845143       -22.9975 
  35   2.0000      -0.842912       -22.9368 
  36   2.0000      -0.834252       -22.7012 
  37   2.0000      -0.810191       -22.0464 
  38   2.0000      -0.784213       -21.3395 
  39   2.0000      -0.753823       -20.5126 
  40   2.0000      -0.744231       -20.2516 
  41   2.0000      -0.710128       -19.3236 
  42   2.0000      -0.666158       -18.1271 
  43   2.0000      -0.641704       -17.4617 
  44   2.0000      -0.639685       -17.4067 
  45   2.0000      -0.627657       -17.0794 
  46   2.0000      -0.606892       -16.5144 
  47   2.0000      -0.587706       -15.9923 
  48   2.0000      -0.576966       -15.7001 
  49   2.0000      -0.571570       -15.5532 
  50   2.0000      -0.564629       -15.3643 
  51   2.0000      -0.546392       -14.8681 
  52   2.0000      -0.543617       -14.7926 
  53   2.0000      -0.537922       -14.6376 
  54   2.0000      -0.531149       -14.4533 
  55   2.0000      -0.530222       -14.4281 
  56   2.0000      -0.521419       -14.1885 
  57   2.0000      -0.517289       -14.0762 
  58   2.0000      -0.515134       -14.0175 
  59   2.0000      -0.509546       -13.8654 
  60   2.0000      -0.506194       -13.7742 
  61   2.0000      -0.504656       -13.7324 
  62   2.0000      -0.493129       -13.4187 
  63   2.0000      -0.483414       -13.1544 
  64   2.0000      -0.481810       -13.1107 
  65   2.0000      -0.468279       -12.7425 
  66   2.0000      -0.465932       -12.6787 
  67   2.0000      -0.453874       -12.3505 
  68   2.0000      -0.452020       -12.3001 
  69   2.0000      -0.448834       -12.2134 
  70   2.0000      -0.443964       -12.0809 
  71   2.0000      -0.441486       -12.0134 
  72   2.0000      -0.419024       -11.4022 
  73   2.0000      -0.412891       -11.2353 
  74   2.0000      -0.393892       -10.7183 
  75   2.0000      -0.378315       -10.2945 
  76   2.0000      -0.371493       -10.1088 
  77   2.0000      -0.364784        -9.9263 
  78   2.0000      -0.359419        -9.7803 
  79   2.0000      -0.343021        -9.3341 
  80   2.0000      -0.337770        -9.1912 
  81   2.0000      -0.311861        -8.4862 
  82   2.0000      -0.307574        -8.3695 
  83   2.0000      -0.286244        -7.7891 
  84   0.0000       0.024741         0.6732 
  85   0.0000       0.036021         0.9802 
  86   0.0000       0.037714         1.0262 
  87   0.0000       0.040070         1.0904 
  88   0.0000       0.045558         1.2397 
  89   0.0000       0.053839         1.4650 
  90   0.0000       0.056388         1.5344 
  91   0.0000       0.059539         1.6201 
  92   0.0000       0.061244         1.6665 
  93   0.0000       0.063961         1.7405 
  94   0.0000       0.069791         1.8991 
  95   0.0000       0.077266         2.1025 
  96   0.0000       0.080438         2.1888 
  97   0.0000       0.082750         2.2518 
  98   0.0000       0.085091         2.3154 
  99   0.0000       0.086471         2.3530 
 100   0.0000       0.091969         2.5026 
 101   0.0000       0.098335         2.6758 
 102   0.0000       0.103440         2.8147 
 103   0.0000       0.108288         2.9467 
 104   0.0000       0.111328         3.0294 
 105   0.0000       0.112521         3.0618 
 106   0.0000       0.115516         3.1433 
 107   0.0000       0.118708         3.2302 
 108   0.0000       0.124766         3.3951 
 109   0.0000       0.125784         3.4228 
 110   0.0000       0.127640         3.4733 
 111   0.0000       0.130051         3.5389 
 112   0.0000       0.134709         3.6656 
 113   0.0000       0.138097         3.7578 
 114   0.0000       0.141875         3.8606 
 115   0.0000       0.151747         4.1292 
 116   0.0000       0.156398         4.2558 
 117   0.0000       0.159141         4.3304 
 118   0.0000       0.164926         4.4879 
 119   0.0000       0.168005         4.5716 
 120   0.0000       0.171962         4.6793 
 121   0.0000       0.175119         4.7652 
 122   0.0000       0.178394         4.8543 
 123   0.0000       0.183345         4.9891 
 124   0.0000       0.185473         5.0470 
 125   0.0000       0.191552         5.2124 
 126   0.0000       0.193194         5.2571 
 127   0.0000       0.200804         5.4641 
 128   0.0000       0.204059         5.5527 
 129   0.0000       0.207462         5.6453 
 130   0.0000       0.209773         5.7082 
 131   0.0000       0.214320         5.8319 
 132   0.0000       0.215186         5.8555 
 133   0.0000       0.216896         5.9020 
 134   0.0000       0.226672         6.1681 
 135   0.0000       0.228598         6.2205 
 136   0.0000       0.230971         6.2850 
 137   0.0000       0.235614         6.4114 
 138   0.0000       0.238514         6.4903 
 139   0.0000       0.243132         6.6159 
 140   0.0000       0.243967         6.6387 
 141   0.0000       0.245936         6.6923 
 142   0.0000       0.247942         6.7468 
 143   0.0000       0.248909         6.7732 
 144   0.0000       0.253916         6.9094 
 145   0.0000       0.257517         7.0074 
 146   0.0000       0.259090         7.0502 
 147   0.0000       0.260254         7.0819 
 148   0.0000       0.262311         7.1378 
 149   0.0000       0.264634         7.2010 
 150   0.0000       0.269675         7.3382 
 151   0.0000       0.272435         7.4133 
 152   0.0000       0.275153         7.4873 
 153   0.0000       0.276784         7.5317 
 154   0.0000       0.279791         7.6135 
 155   0.0000       0.281680         7.6649 
 156   0.0000       0.285505         7.7690 
 157   0.0000       0.285632         7.7725 
 158   0.0000       0.289158         7.8684 
 159   0.0000       0.290717         7.9108 
 160   0.0000       0.292250         7.9525 
 161   0.0000       0.297379         8.0921 
 162   0.0000       0.300476         8.1764 
 163   0.0000       0.302479         8.2309 
 164   0.0000       0.303053         8.2465 
 165   0.0000       0.303866         8.2686 
 166   0.0000       0.305161         8.3039 
 167   0.0000       0.306561         8.3419 
 168   0.0000       0.309734         8.4283 
 169   0.0000       0.312186         8.4950 
 170   0.0000       0.313643         8.5346 
 171   0.0000       0.317763         8.6468 
 172   0.0000       0.320095         8.7102 
 173   0.0000       0.320657         8.7255 
 174   0.0000       0.323172         8.7940 
 175   0.0000       0.327511         8.9120 
 176   0.0000       0.329065         8.9543 
 177   0.0000       0.329716         8.9720 
 178   0.0000       0.333786         9.0828 
 179   0.0000       0.334785         9.1100 
 180   0.0000       0.336534         9.1576 
 181   0.0000       0.339230         9.2309 
 182   0.0000       0.341815         9.3013 
 183   0.0000       0.343143         9.3374 
 184   0.0000       0.347550         9.4573 
 185   0.0000       0.350341         9.5333 
 186   0.0000       0.352219         9.5844 
 187   0.0000       0.356934         9.7127 
 188   0.0000       0.359863         9.7924 
 189   0.0000       0.361968         9.8497 
 190   0.0000       0.365044         9.9334 
 191   0.0000       0.366549         9.9743 
 192   0.0000       0.368682        10.0323 
 193   0.0000       0.370595        10.0844 
 194   0.0000       0.372804        10.1445 
 195   0.0000       0.374906        10.2017 
 196   0.0000       0.379503        10.3268 
 197   0.0000       0.379660        10.3311 
 198   0.0000       0.384720        10.4688 
 199   0.0000       0.386805        10.5255 
 200   0.0000       0.391414        10.6509 
 201   0.0000       0.393336        10.7032 
 202   0.0000       0.397541        10.8176 
 203   0.0000       0.399075        10.8594 
 204   0.0000       0.399797        10.8790 
 205   0.0000       0.402818        10.9612 
 206   0.0000       0.403646        10.9838 
 207   0.0000       0.406115        11.0510 
 208   0.0000       0.408894        11.1266 
 209   0.0000       0.410641        11.1741 
 210   0.0000       0.413850        11.2614 
 211   0.0000       0.415454        11.3051 
 212   0.0000       0.416720        11.3395 
 213   0.0000       0.419760        11.4223 
 214   0.0000       0.421998        11.4831 
 215   0.0000       0.423488        11.5237 
 216   0.0000       0.424344        11.5470 
 217   0.0000       0.429848        11.6968 
 218   0.0000       0.430926        11.7261 
 219   0.0000       0.434147        11.8137 
 220   0.0000       0.434777        11.8309 
 221   0.0000       0.439348        11.9553 
 222   0.0000       0.443016        12.0551 
 223   0.0000       0.443760        12.0753 
 224   0.0000       0.447677        12.1819 
 225   0.0000       0.449204        12.2235 
 226   0.0000       0.452407        12.3106 
 227   0.0000       0.457803        12.4574 
 228   0.0000       0.459512        12.5040 
 229   0.0000       0.462631        12.5888 
 230   0.0000       0.464039        12.6271 
 231   0.0000       0.467334        12.7168 
 232   0.0000       0.468824        12.7574 
 233   0.0000       0.473331        12.8800 
 234   0.0000       0.473823        12.8934 
 235   0.0000       0.479458        13.0467 
 236   0.0000       0.479904        13.0588 
 237   0.0000       0.482958        13.1420 
 238   0.0000       0.485074        13.1995 
 239   0.0000       0.489333        13.3154 
 240   0.0000       0.490484        13.3467 
 241   0.0000       0.490984        13.3603 
 242   0.0000       0.493129        13.4187 
 243   0.0000       0.495581        13.4855 
 244   0.0000       0.499441        13.5905 
 245   0.0000       0.503426        13.6989 
 246   0.0000       0.504242        13.7211 
 247   0.0000       0.505749        13.7621 
 248   0.0000       0.506751        13.7894 
 249   0.0000       0.511527        13.9194 
 250   0.0000       0.514740        14.0068 
 251   0.0000       0.519528        14.1371 
 252   0.0000       0.519991        14.1497 
 253   0.0000       0.521474        14.1900 
 254   0.0000       0.526553        14.3282 
 255   0.0000       0.526847        14.3362 
 256   0.0000       0.529869        14.4185 
 257   0.0000       0.532979        14.5031 
 258   0.0000       0.535889        14.5823 
 259   0.0000       0.540530        14.7086 
 260   0.0000       0.543722        14.7954 
 261   0.0000       0.547852        14.9078 
 262   0.0000       0.549193        14.9443 
 263   0.0000       0.550439        14.9782 
 264   0.0000       0.552958        15.0468 
 265   0.0000       0.553820        15.0702 
 266   0.0000       0.554192        15.0803 
 267   0.0000       0.561506        15.2794 
 268   0.0000       0.564046        15.3485 
 269   0.0000       0.570384        15.5209 
 270   0.0000       0.572355        15.5746 
 271   0.0000       0.573039        15.5932 
 272   0.0000       0.576678        15.6922 
 273   0.0000       0.576819        15.6960 
 274   0.0000       0.582297        15.8451 
 275   0.0000       0.584434        15.9033 
 276   0.0000       0.587185        15.9781 
 277   0.0000       0.591880        16.1059 
 278   0.0000       0.593503        16.1500 
 279   0.0000       0.597871        16.2689 
 280   0.0000       0.602640        16.3987 
 281   0.0000       0.604327        16.4446 
 282   0.0000       0.604993        16.4627 
 283   0.0000       0.609228        16.5779 
 284   0.0000       0.610464        16.6116 
 285   0.0000       0.612836        16.6761 
 286   0.0000       0.614670        16.7260 
 287   0.0000       0.617377        16.7997 
 288   0.0000       0.624124        16.9833 
 289   0.0000       0.628116        17.0919 
 290   0.0000       0.632175        17.2023 
 291   0.0000       0.633717        17.2443 
 292   0.0000       0.635544        17.2940 
 293   0.0000       0.640617        17.4321 
 294   0.0000       0.641410        17.4537 
 295   0.0000       0.644909        17.5489 
 296   0.0000       0.649115        17.6633 
 297   0.0000       0.650057        17.6890 
 298   0.0000       0.651580        17.7304 
 299   0.0000       0.660022        17.9601 
 300   0.0000       0.660249        17.9663 
 301   0.0000       0.663230        18.0474 
 302   0.0000       0.667125        18.1534 
 303   0.0000       0.671466        18.2715 
 304   0.0000       0.673302        18.3215 
 305   0.0000       0.675958        18.3938 
 306   0.0000       0.680545        18.5186 
 307   0.0000       0.681655        18.5488 
 308   0.0000       0.683828        18.6079 
 309   0.0000       0.689983        18.7754 
 310   0.0000       0.690664        18.7939 
 311   0.0000       0.694853        18.9079 
 312   0.0000       0.696309        18.9475 
 313   0.0000       0.699550        19.0357 
 314   0.0000       0.701008        19.0754 
 315   0.0000       0.702135        19.1061 
 316   0.0000       0.705351        19.1936 
 317   0.0000       0.706138        19.2150 
 318   0.0000       0.709849        19.3160 
 319   0.0000       0.711909        19.3720 
 320   0.0000       0.713914        19.4266 
 321   0.0000       0.715498        19.4697 
 322   0.0000       0.715935        19.4816 
 323   0.0000       0.718456        19.5502 
 324   0.0000       0.721349        19.6289 
 325   0.0000       0.723224        19.6799 
 326   0.0000       0.726553        19.7705 
 327   0.0000       0.728871        19.8336 
 328   0.0000       0.731455        19.9039 
 329   0.0000       0.732145        19.9227 
 330   0.0000       0.735252        20.0072 
 331   0.0000       0.741124        20.1670 
 332   0.0000       0.743007        20.2183 
 333   0.0000       0.744591        20.2613 
 334   0.0000       0.748133        20.3577 
 335   0.0000       0.752306        20.4713 
 336   0.0000       0.752971        20.4894 
 337   0.0000       0.755995        20.5717 
 338   0.0000       0.758314        20.6348 
 339   0.0000       0.760814        20.7028 
 340   0.0000       0.765536        20.8313 
 341   0.0000       0.767457        20.8836 
 342   0.0000       0.769835        20.9483 
 343   0.0000       0.773329        21.0434 
 344   0.0000       0.774737        21.0817 
 345   0.0000       0.776995        21.1431 
 346   0.0000       0.779955        21.2236 
 347   0.0000       0.781680        21.2706 
 348   0.0000       0.783865        21.3300 
 349   0.0000       0.786867        21.4117 
 350   0.0000       0.789202        21.4753 
 351   0.0000       0.789690        21.4885 
 352   0.0000       0.793529        21.5930 
 353   0.0000       0.794431        21.6176 
 354   0.0000       0.797395        21.6982 
 355   0.0000       0.798425        21.7262 
 356   0.0000       0.800100        21.7718 
 357   0.0000       0.803059        21.8523 
 358   0.0000       0.808503        22.0005 
 359   0.0000       0.809612        22.0307 
 360   0.0000       0.812828        22.1182 
 361   0.0000       0.816173        22.2092 
 362   0.0000       0.817702        22.2508 
 363   0.0000       0.821481        22.3536 
 364   0.0000       0.824553        22.4372 
 365   0.0000       0.826408        22.4877 
 366   0.0000       0.826914        22.5015 
 367   0.0000       0.832550        22.6548 
 368   0.0000       0.835105        22.7244 
 369   0.0000       0.837417        22.7873 
 370   0.0000       0.842327        22.9209 
 371   0.0000       0.847335        23.0572 
 372   0.0000       0.848377        23.0855 
 373   0.0000       0.853284        23.2190 
 374   0.0000       0.855325        23.2746 
 375   0.0000       0.857933        23.3456 
 376   0.0000       0.863744        23.5037 
 377   0.0000       0.864139        23.5144 
 378   0.0000       0.866331        23.5741 
 379   0.0000       0.868147        23.6235 
 380   0.0000       0.872995        23.7554 
 381   0.0000       0.873713        23.7749 
 382   0.0000       0.874913        23.8076 
 383   0.0000       0.880330        23.9550 
 384   0.0000       0.883924        24.0528 
 385   0.0000       0.886575        24.1249 
 386   0.0000       0.890359        24.2279 
 387   0.0000       0.894573        24.3426 
 388   0.0000       0.895820        24.3765 
 389   0.0000       0.897943        24.4343 
 390   0.0000       0.900781        24.5115 
 391   0.0000       0.904918        24.6241 
 392   0.0000       0.908489        24.7212 
 393   0.0000       0.914622        24.8881 
 394   0.0000       0.917444        24.9649 
 395   0.0000       0.922403        25.0998 
 396   0.0000       0.925901        25.1951 
 397   0.0000       0.929821        25.3017 
 398   0.0000       0.932517        25.3751 
 399   0.0000       0.934127        25.4189 
 400   0.0000       0.937192        25.5023 
 401   0.0000       0.939823        25.5739 
 402   0.0000       0.942753        25.6536 
 403   0.0000       0.946200        25.7474 
 404   0.0000       0.950702        25.8699 
 405   0.0000       0.956881        26.0381 
 406   0.0000       0.960207        26.1286 
 407   0.0000       0.962689        26.1961 
 408   0.0000       0.966514        26.3002 
 409   0.0000       0.971810        26.4443 
 410   0.0000       0.973306        26.4850 
 411   0.0000       0.975811        26.5532 
 412   0.0000       0.981050        26.6957 
 413   0.0000       0.987527        26.8720 
 414   0.0000       0.992221        26.9997 
 415   0.0000       0.994073        27.0501 
 416   0.0000       0.997859        27.1531 
 417   0.0000       1.002145        27.2698 
 418   0.0000       1.006828        27.3972 
 419   0.0000       1.008738        27.4491 
 420   0.0000       1.014564        27.6077 
 421   0.0000       1.021608        27.7994 
 422   0.0000       1.023168        27.8418 
 423   0.0000       1.027250        27.9529 
 424   0.0000       1.032616        28.0989 
 425   0.0000       1.034121        28.1399 
 426   0.0000       1.039409        28.2838 
 427   0.0000       1.044262        28.4158 
 428   0.0000       1.046740        28.4833 
 429   0.0000       1.054023        28.6814 
 430   0.0000       1.059166        28.8214 
 431   0.0000       1.060756        28.8646 
 432   0.0000       1.072066        29.1724 
 433   0.0000       1.073316        29.2064 
 434   0.0000       1.075821        29.2746 
 435   0.0000       1.078966        29.3601 
 436   0.0000       1.086784        29.5729 
 437   0.0000       1.096492        29.8371 
 438   0.0000       1.100639        29.9499 
 439   0.0000       1.107012        30.1233 
 440   0.0000       1.113234        30.2926 
 441   0.0000       1.118883        30.4464 
 442   0.0000       1.122940        30.5568 
 443   0.0000       1.136230        30.9184 
 444   0.0000       1.138360        30.9764 
 445   0.0000       1.147161        31.2158 
 446   0.0000       1.155403        31.4401 
 447   0.0000       1.157223        31.4896 
 448   0.0000       1.164513        31.6880 
 449   0.0000       1.166109        31.7314 
 450   0.0000       1.170777        31.8585 
 451   0.0000       1.181788        32.1581 
 452   0.0000       1.192678        32.4544 
 453   0.0000       1.193823        32.4856 
 454   0.0000       1.198601        32.6156 
 455   0.0000       1.202996        32.7352 
 456   0.0000       1.206002        32.8170 
 457   0.0000       1.212195        32.9855 
 458   0.0000       1.217771        33.1372 
 459   0.0000       1.220517        33.2120 
 460   0.0000       1.228829        33.4381 
 461   0.0000       1.229477        33.4558 
 462   0.0000       1.244771        33.8720 
 463   0.0000       1.245576        33.8938 
 464   0.0000       1.252901        34.0932 
 465   0.0000       1.253900        34.1204 
 466   0.0000       1.258235        34.2383 
 467   0.0000       1.266860        34.4730 
 468   0.0000       1.275097        34.6972 
 469   0.0000       1.279278        34.8109 
 470   0.0000       1.286545        35.0087 
 471   0.0000       1.291727        35.1497 
 472   0.0000       1.293803        35.2062 
 473   0.0000       1.300264        35.3820 
 474   0.0000       1.302971        35.4556 
 475   0.0000       1.308019        35.5930 
 476   0.0000       1.311703        35.6932 
 477   0.0000       1.320034        35.9200 
 478   0.0000       1.331414        36.2296 
 479   0.0000       1.333023        36.2734 
 480   0.0000       1.335798        36.3489 
 481   0.0000       1.339044        36.4372 
 482   0.0000       1.347383        36.6642 
 483   0.0000       1.349125        36.7116 
 484   0.0000       1.353445        36.8291 
 485   0.0000       1.358154        36.9573 
 486   0.0000       1.363419        37.1005 
 487   0.0000       1.365700        37.1626 
 488   0.0000       1.371354        37.3164 
 489   0.0000       1.373560        37.3765 
 490   0.0000       1.374158        37.3927 
 491   0.0000       1.381381        37.5893 
 492   0.0000       1.390890        37.8480 
 493   0.0000       1.395399        37.9707 
 494   0.0000       1.402210        38.1561 
 495   0.0000       1.402741        38.1705 
 496   0.0000       1.407517        38.3005 
 497   0.0000       1.409836        38.3636 
 498   0.0000       1.415251        38.5109 
 499   0.0000       1.421376        38.6776 
 500   0.0000       1.424605        38.7655 
 501   0.0000       1.428709        38.8771 
 502   0.0000       1.434114        39.0242 
 503   0.0000       1.437014        39.1031 
 504   0.0000       1.441698        39.2306 
 505   0.0000       1.446061        39.3493 
 506   0.0000       1.452164        39.5154 
 507   0.0000       1.454003        39.5654 
 508   0.0000       1.459159        39.7057 
 509   0.0000       1.459694        39.7203 
 510   0.0000       1.466650        39.9096 
 511   0.0000       1.470451        40.0130 
 512   0.0000       1.474024        40.1102 
 513   0.0000       1.481259        40.3071 
 514   0.0000       1.485388        40.4195 
 515   0.0000       1.487952        40.4892 
 516   0.0000       1.489908        40.5425 
 517   0.0000       1.495156        40.6853 
 518   0.0000       1.499455        40.8023 
 519   0.0000       1.502960        40.8976 
 520   0.0000       1.506753        41.0008 
 521   0.0000       1.509119        41.0652 
 522   0.0000       1.516586        41.2684 
 523   0.0000       1.518725        41.3266 
 524   0.0000       1.520324        41.3701 
 525   0.0000       1.528293        41.5870 
 526   0.0000       1.532426        41.6994 
 527   0.0000       1.533142        41.7189 
 528   0.0000       1.538118        41.8543 
 529   0.0000       1.544821        42.0367 
 530   0.0000       1.545473        42.0544 
 531   0.0000       1.549184        42.1554 
 532   0.0000       1.553986        42.2861 
 533   0.0000       1.556342        42.3502 
 534   0.0000       1.560644        42.4673 
 535   0.0000       1.563012        42.5317 
 536   0.0000       1.571292        42.7570 
 537   0.0000       1.575056        42.8595 
 538   0.0000       1.578417        42.9509 
 539   0.0000       1.583709        43.0949 
 540   0.0000       1.588531        43.2261 
 541   0.0000       1.596798        43.4511 
 542   0.0000       1.602348        43.6021 
 543   0.0000       1.606594        43.7177 
 544   0.0000       1.609876        43.8069 
 545   0.0000       1.611090        43.8400 
 546   0.0000       1.611839        43.8604 
 547   0.0000       1.622356        44.1466 
 548   0.0000       1.624801        44.2131 
 549   0.0000       1.630933        44.3800 
 550   0.0000       1.640291        44.6346 
 551   0.0000       1.641790        44.6754 
 552   0.0000       1.643595        44.7245 
 553   0.0000       1.650762        44.9195 
 554   0.0000       1.654783        45.0289 
 555   0.0000       1.659497        45.1572 
 556   0.0000       1.660751        45.1913 
 557   0.0000       1.667871        45.3851 
 558   0.0000       1.675867        45.6026 
 559   0.0000       1.677395        45.6442 
 560   0.0000       1.683282        45.8044 
 561   0.0000       1.683864        45.8203 
 562   0.0000       1.692155        46.0459 
 563   0.0000       1.699399        46.2430 
 564   0.0000       1.702105        46.3166 
 565   0.0000       1.707324        46.4586 
 566   0.0000       1.715846        46.6905 
 567   0.0000       1.717659        46.7399 
 568   0.0000       1.723879        46.9091 
 569   0.0000       1.734940        47.2101 
 570   0.0000       1.735730        47.2316 
 571   0.0000       1.736652        47.2567 
 572   0.0000       1.746294        47.5191 
 573   0.0000       1.748743        47.5857 
 574   0.0000       1.755925        47.7812 
 575   0.0000       1.759030        47.8656 
 576   0.0000       1.766112        48.0584 
 577   0.0000       1.772682        48.2371 
 578   0.0000       1.777534        48.3692 
 579   0.0000       1.783050        48.5193 
 580   0.0000       1.785316        48.5809 
 581   0.0000       1.789441        48.6932 
 582   0.0000       1.794499        48.8308 
 583   0.0000       1.801924        49.0329 
 584   0.0000       1.805248        49.1233 
 585   0.0000       1.812066        49.3088 
 586   0.0000       1.818755        49.4908 
 587   0.0000       1.824081        49.6358 
 588   0.0000       1.830324        49.8056 
 589   0.0000       1.833779        49.8997 
 590   0.0000       1.835760        49.9536 
 591   0.0000       1.839937        50.0672 
 592   0.0000       1.842377        50.1336 
 593   0.0000       1.856688        50.5231 
 594   0.0000       1.857699        50.5505 
 595   0.0000       1.864272        50.7294 
 596   0.0000       1.875279        51.0289 
 597   0.0000       1.877611        51.0924 
 598   0.0000       1.878408        51.1141 
 599   0.0000       1.882176        51.2166 
 600   0.0000       1.890100        51.4322 
 601   0.0000       1.891829        51.4793 
 602   0.0000       1.902358        51.7658 
 603   0.0000       1.905749        51.8581 
 604   0.0000       1.907860        51.9155 
 605   0.0000       1.915306        52.1181 
 606   0.0000       1.919966        52.2449 
 607   0.0000       1.930346        52.5274 
 608   0.0000       1.931872        52.5689 
 609   0.0000       1.937332        52.7175 
 610   0.0000       1.949027        53.0357 
 611   0.0000       1.956252        53.2323 
 612   0.0000       1.965689        53.4891 
 613   0.0000       1.969644        53.5967 
 614   0.0000       1.973575        53.7037 
 615   0.0000       1.981109        53.9087 
 616   0.0000       1.996343        54.3233 
 617   0.0000       2.000990        54.4497 
 618   0.0000       2.004685        54.5503 
 619   0.0000       2.014500        54.8173 
 620   0.0000       2.019737        54.9598 
 621   0.0000       2.025474        55.1160 
 622   0.0000       2.034117        55.3511 
 623   0.0000       2.039667        55.5022 
 624   0.0000       2.043019        55.5934 
 625   0.0000       2.051965        55.8368 
 626   0.0000       2.055691        55.9382 
 627   0.0000       2.065853        56.2147 
 628   0.0000       2.068937        56.2986 
 629   0.0000       2.080273        56.6071 
 630   0.0000       2.083202        56.6868 
 631   0.0000       2.098231        57.0958 
 632   0.0000       2.108493        57.3750 
 633   0.0000       2.111259        57.4503 
 634   0.0000       2.121260        57.7224 
 635   0.0000       2.133668        58.0601 
 636   0.0000       2.141581        58.2754 
 637   0.0000       2.147977        58.4494 
 638   0.0000       2.155291        58.6484 
 639   0.0000       2.169155        59.0257 
 640   0.0000       2.192263        59.6545 
 641   0.0000       2.197246        59.7901 
 642   0.0000       2.198919        59.8356 
 643   0.0000       2.214106        60.2489 
 644   0.0000       2.218900        60.3793 
 645   0.0000       2.233505        60.7768 
 646   0.0000       2.235501        60.8311 
 647   0.0000       2.258871        61.4670 
 648   0.0000       2.265083        61.6360 
 649   0.0000       2.267547        61.7031 
 650   0.0000       2.275515        61.9199 
 651   0.0000       2.285448        62.1902 
 652   0.0000       2.295292        62.4581 
 653   0.0000       2.301104        62.6162 
 654   0.0000       2.302494        62.6541 
 655   0.0000       2.307145        62.7806 
 656   0.0000       2.315032        62.9952 
 657   0.0000       2.320970        63.1568 
 658   0.0000       2.331904        63.4543 
 659   0.0000       2.338584        63.6361 
 660   0.0000       2.349712        63.9389 
 661   0.0000       2.355064        64.0845 
 662   0.0000       2.361450        64.2583 
 663   0.0000       2.374149        64.6039 
 664   0.0000       2.381258        64.7973 
 665   0.0000       2.388442        64.9928 
 666   0.0000       2.403422        65.4004 
 667   0.0000       2.412817        65.6561 
 668   0.0000       2.420289        65.8594 
 669   0.0000       2.421854        65.9020 
 670   0.0000       2.425903        66.0122 
 671   0.0000       2.453606        66.7660 
 672   0.0000       2.459039        66.9138 
 673   0.0000       2.461657        66.9851 
 674   0.0000       2.468646        67.1753 
 675   0.0000       2.478599        67.4461 
 676   0.0000       2.494721        67.8848 
 677   0.0000       2.502484        68.0961 
 678   0.0000       2.507683        68.2375 
 679   0.0000       2.517030        68.4919 
 680   0.0000       2.530936        68.8703 
 681   0.0000       2.536388        69.0186 
 682   0.0000       2.548243        69.3412 
 683   0.0000       2.556482        69.5654 
 684   0.0000       2.562081        69.7178 
 685   0.0000       2.568953        69.9048 
 686   0.0000       2.583228        70.2932 
 687   0.0000       2.585255        70.3484 
 688   0.0000       2.601004        70.7769 
 689   0.0000       2.605576        70.9013 
 690   0.0000       2.610021        71.0223 
 691   0.0000       2.623789        71.3969 
 692   0.0000       2.634523        71.6890 
 693   0.0000       2.641410        71.8764 
 694   0.0000       2.647151        72.0326 
 695   0.0000       2.656037        72.2744 
 696   0.0000       2.662899        72.4612 
 697   0.0000       2.674225        72.7694 
 698   0.0000       2.680760        72.9472 
 699   0.0000       2.683870        73.0318 
 700   0.0000       2.688974        73.1707 
 701   0.0000       2.707335        73.6703 
 702   0.0000       2.716821        73.9285 
 703   0.0000       2.719900        74.0122 
 704   0.0000       2.730070        74.2890 
 705   0.0000       2.737968        74.5039 
 706   0.0000       2.747116        74.7528 
 707   0.0000       2.749263        74.8112 
 708   0.0000       2.757646        75.0394 
 709   0.0000       2.770214        75.3814 
 710   0.0000       2.779905        75.6451 
 711   0.0000       2.786237        75.8173 
 712   0.0000       2.799664        76.1827 
 713   0.0000       2.807745        76.4026 
 714   0.0000       2.814204        76.5784 
 715   0.0000       2.823281        76.8254 
 716   0.0000       2.833047        77.0911 
 717   0.0000       2.842810        77.3568 
 718   0.0000       2.848230        77.5043 
 719   0.0000       2.857278        77.7505 
 720   0.0000       2.864879        77.9573 
 721   0.0000       2.875532        78.2472 
 722   0.0000       2.875915        78.2576 
 723   0.0000       2.881342        78.4053 
 724   0.0000       2.889988        78.6406 
 725   0.0000       2.895834        78.7997 
 726   0.0000       2.902017        78.9679 
 727   0.0000       2.907184        79.1085 
 728   0.0000       2.912845        79.2625 
 729   0.0000       2.926170        79.6251 
 730   0.0000       2.931332        79.7656 
 731   0.0000       2.933838        79.8338 
 732   0.0000       2.943661        80.1011 
 733   0.0000       2.947685        80.2106 
 734   0.0000       2.957522        80.4783 
 735   0.0000       2.962094        80.6027 
 736   0.0000       2.964746        80.6748 
 737   0.0000       2.973322        80.9082 
 738   0.0000       2.979493        81.0761 
 739   0.0000       2.981217        81.1230 
 740   0.0000       2.984287        81.2066 
 741   0.0000       2.991562        81.4046 
 742   0.0000       2.998898        81.6042 
 743   0.0000       3.001614        81.6781 
 744   0.0000       3.007907        81.8493 
 745   0.0000       3.011416        81.9448 
 746   0.0000       3.018480        82.1370 
 747   0.0000       3.024171        82.2919 
 748   0.0000       3.028683        82.4147 
 749   0.0000       3.033401        82.5430 
 750   0.0000       3.039314        82.7039 
 751   0.0000       3.048538        82.9549 
 752   0.0000       3.052762        83.0699 
 753   0.0000       3.056864        83.1815 
 754   0.0000       3.059858        83.2630 
 755   0.0000       3.066501        83.4437 
 756   0.0000       3.068689        83.5033 
 757   0.0000       3.074563        83.6631 
 758   0.0000       3.077846        83.7524 
 759   0.0000       3.088106        84.0316 
 760   0.0000       3.095752        84.2397 
 761   0.0000       3.101250        84.3893 
 762   0.0000       3.108436        84.5848 
 763   0.0000       3.113753        84.7295 
 764   0.0000       3.120245        84.9062 
 765   0.0000       3.127288        85.0978 
 766   0.0000       3.130116        85.1748 
 767   0.0000       3.137315        85.3707 
 768   0.0000       3.144062        85.5543 
 769   0.0000       3.150671        85.7341 
 770   0.0000       3.161074        86.0172 
 771   0.0000       3.165809        86.1460 
 772   0.0000       3.168232        86.2120 
 773   0.0000       3.173005        86.3419 
 774   0.0000       3.178689        86.4965 
 775   0.0000       3.183441        86.6258 
 776   0.0000       3.191950        86.8574 
 777   0.0000       3.197686        87.0134 
 778   0.0000       3.202040        87.1319 
 779   0.0000       3.212803        87.4248 
 780   0.0000       3.220977        87.6472 
 781   0.0000       3.226387        87.7944 
 782   0.0000       3.227883        87.8352 
 783   0.0000       3.230774        87.9138 
 784   0.0000       3.242058        88.2209 
 785   0.0000       3.245987        88.3278 
 786   0.0000       3.253378        88.5289 
 787   0.0000       3.258651        88.6724 
 788   0.0000       3.264567        88.8334 
 789   0.0000       3.270702        89.0003 
 790   0.0000       3.271735        89.0284 
 791   0.0000       3.278738        89.2190 
 792   0.0000       3.284401        89.3731 
 793   0.0000       3.291250        89.5595 
 794   0.0000       3.295197        89.6669 
 795   0.0000       3.301512        89.8387 
 796   0.0000       3.307628        90.0051 
 797   0.0000       3.312106        90.1270 
 798   0.0000       3.317305        90.2685 
 799   0.0000       3.319934        90.3400 
 800   0.0000       3.323358        90.4332 
 801   0.0000       3.329996        90.6138 
 802   0.0000       3.333982        90.7223 
 803   0.0000       3.346911        91.0741 
 804   0.0000       3.349613        91.1476 
 805   0.0000       3.354800        91.2888 
 806   0.0000       3.357636        91.3659 
 807   0.0000       3.367985        91.6475 
 808   0.0000       3.369639        91.6925 
 809   0.0000       3.376099        91.8683 
 810   0.0000       3.381666        92.0198 
 811   0.0000       3.386051        92.1391 
 812   0.0000       3.389390        92.2300 
 813   0.0000       3.392683        92.3196 
 814   0.0000       3.402905        92.5978 
 815   0.0000       3.408591        92.7525 
 816   0.0000       3.418875        93.0323 
 817   0.0000       3.420985        93.0897 
 818   0.0000       3.423288        93.1524 
 819   0.0000       3.429617        93.3246 
 820   0.0000       3.436679        93.5168 
 821   0.0000       3.442343        93.6709 
 822   0.0000       3.444998        93.7432 
 823   0.0000       3.446644        93.7879 
 824   0.0000       3.451775        93.9276 
 825   0.0000       3.457927        94.0950 
 826   0.0000       3.466208        94.3203 
 827   0.0000       3.472382        94.4883 
 828   0.0000       3.479419        94.6798 
 829   0.0000       3.484900        94.8290 
 830   0.0000       3.486760        94.8796 
 831   0.0000       3.490014        94.9681 
 832   0.0000       3.495732        95.1237 
 833   0.0000       3.500182        95.2448 
 834   0.0000       3.508184        95.4625 
 835   0.0000       3.516434        95.6870 
 836   0.0000       3.516844        95.6982 
 837   0.0000       3.525594        95.9363 
 838   0.0000       3.534421        96.1765 
 839   0.0000       3.537997        96.2738 
 840   0.0000       3.541401        96.3664 
 841   0.0000       3.548572        96.5616 
 842   0.0000       3.554560        96.7245 
 843   0.0000       3.558955        96.8441 
 844   0.0000       3.561210        96.9055 
 845   0.0000       3.572550        97.2140 
 846   0.0000       3.574537        97.2681 
 847   0.0000       3.575851        97.3039 
 848   0.0000       3.578155        97.3665 
 849   0.0000       3.588427        97.6461 
 850   0.0000       3.591330        97.7251 
 851   0.0000       3.597203        97.8849 
 852   0.0000       3.597930        97.9046 
 853   0.0000       3.602132        98.0190 
 854   0.0000       3.607066        98.1532 
 855   0.0000       3.607605        98.1679 
 856   0.0000       3.617015        98.4240 
 857   0.0000       3.623437        98.5987 
 858   0.0000       3.632605        98.8482 
 859   0.0000       3.635322        98.9221 
 860   0.0000       3.639423        99.0337 
 861   0.0000       3.643208        99.1367 
 862   0.0000       3.648213        99.2729 
 863   0.0000       3.651577        99.3645 
 864   0.0000       3.659122        99.5698 
 865   0.0000       3.669178        99.8434 
 866   0.0000       3.671707        99.9122 
 867   0.0000       3.678703       100.1026 
 868   0.0000       3.679875       100.1345 
[...]
      dyz     :     0.002923
      dx2y2   :     0.008543
      dxy     :     0.007788
 24 H s       :     0.675675  s :     0.675675
      pz      :     0.114623  p :     0.307849
      px      :     0.107819
      py      :     0.085407
      dz2     :     0.009023  d :     0.030289
      dxz     :     0.008150
      dyz     :     0.005693
      dx2y2   :     0.003634
      dxy     :     0.003788
 25 H s       :     0.678336  s :     0.678336
      pz      :     0.127412  p :     0.312859
      px      :     0.103353
      py      :     0.082094
      dz2     :     0.008515  d :     0.030351
      dxz     :     0.007165
      dyz     :     0.006973
      dx2y2   :     0.004020
      dxy     :     0.003677
 26 Cls       :     5.612051  s :     5.612051
      pz      :     3.789836  p :    11.000129
      px      :     3.708190
      py      :     3.502104
      dz2     :     0.018005  d :     0.212210
      dxz     :     0.036959
      dyz     :     0.054278
      dx2y2   :     0.048028
      dxy     :     0.054940
      f0      :     0.000421  f :     0.003118
      f+1     :     0.000067
      f-1     :     0.000416
      f+2     :     0.000681
      f-2     :     0.000153
      f+3     :     0.000813
      f-3     :     0.000568
 27 C s       :     2.636972  s :     2.636972
      pz      :     0.819215  p :     2.577338
      px      :     0.812074
      py      :     0.946048
      dz2     :     0.133651  d :     0.893278
      dxz     :     0.134402
      dyz     :     0.189807
      dx2y2   :     0.197122
      dxy     :     0.238296
      f0      :     0.004747  f :     0.044122
      f+1     :     0.006174
      f-1     :     0.004558
      f+2     :     0.006326
      f-2     :     0.005503
      f+3     :     0.008944
      f-3     :     0.007871
 28 C s       :     2.626458  s :     2.626458
      pz      :     0.819677  p :     2.551873
      px      :     0.806157
      py      :     0.926039
      dz2     :     0.142729  d :     0.870345
      dxz     :     0.123483
      dyz     :     0.186093
      dx2y2   :     0.208217
      dxy     :     0.209823
      f0      :     0.004687  f :     0.045520
      f+1     :     0.005001
      f-1     :     0.006221
      f+2     :     0.007498
      f-2     :     0.004920
      f+3     :     0.007948
      f-3     :     0.009245
 29 C s       :     2.608943  s :     2.608943
      pz      :     0.860613  p :     2.615624
      px      :     0.881088
      py      :     0.873923
      dz2     :     0.165138  d :     0.742842
      dxz     :     0.177002
      dyz     :     0.142283
      dx2y2   :     0.109996
      dxy     :     0.148424
      f0      :     0.006508  f :     0.041744
      f+1     :     0.005487
      f-1     :     0.008548
      f+2     :     0.006014
      f-2     :     0.004929
      f+3     :     0.006045
      f-3     :     0.004214
 30 C s       :     2.602810  s :     2.602810
      pz      :     0.857779  p :     2.613761
      px      :     0.876635
      py      :     0.879346
      dz2     :     0.164780  d :     0.739650
      dxz     :     0.148788
      dyz     :     0.175218
      dx2y2   :     0.128571
      dxy     :     0.122294
      f0      :     0.006632  f :     0.042011
      f+1     :     0.008614
      f-1     :     0.005367
      f+2     :     0.006582
      f-2     :     0.005124
      f+3     :     0.003184
      f-3     :     0.006509
 31 C s       :     2.621659  s :     2.621659
      pz      :     0.821810  p :     2.553876
      px      :     0.806118
      py      :     0.925948
      dz2     :     0.133279  d :     0.878385
      dxz     :     0.127847
      dyz     :     0.194628
      dx2y2   :     0.200999
      dxy     :     0.221634
      f0      :     0.004726  f :     0.046467
      f+1     :     0.005224
      f-1     :     0.006145
      f+2     :     0.007904
      f-2     :     0.004660
      f+3     :     0.011225
      f-3     :     0.006582
 32 C s       :     2.636485  s :     2.636485
      pz      :     0.838714  p :     2.587114
      px      :     0.819445
      py      :     0.928955
      dz2     :     0.143075  d :     0.884549
      dxz     :     0.134650
      dyz     :     0.189497
      dx2y2   :     0.209336
      dxy     :     0.207991
      f0      :     0.004564  f :     0.045364
      f+1     :     0.005905
      f-1     :     0.005252
      f+2     :     0.007702
      f-2     :     0.004682
      f+3     :     0.010821
      f-3     :     0.006438
 33 C s       :     2.612328  s :     2.612328
      pz      :     0.849762  p :     2.631517
      px      :     0.883802
      py      :     0.897953
      dz2     :     0.168782  d :     0.778045
      dxz     :     0.209604
      dyz     :     0.120075
      dx2y2   :     0.168977
      dxy     :     0.110607
      f0      :     0.006442  f :     0.041491
      f+1     :     0.006124
      f-1     :     0.007582
      f+2     :     0.005330
      f-2     :     0.005569
      f+3     :     0.005456
      f-3     :     0.004988
 34 C s       :     2.604815  s :     2.604815
      pz      :     0.859649  p :     2.619476
      px      :     0.870804
      py      :     0.889023
      dz2     :     0.169526  d :     0.753852
      dxz     :     0.168645
      dyz     :     0.155997
      dx2y2   :     0.106822
      dxy     :     0.152863
      f0      :     0.006460  f :     0.041431
      f+1     :     0.008513
      f-1     :     0.005167
      f+2     :     0.006802
      f-2     :     0.005091
      f+3     :     0.004727
      f-3     :     0.004670
 35 H s       :     0.681377  s :     0.681377
      pz      :     0.082821  p :     0.263641
      px      :     0.107966
      py      :     0.072855
      dz2     :     0.006081  d :     0.029656
      dxz     :     0.007936
      dyz     :     0.002842
      dx2y2   :     0.005621
      dxy     :     0.007175
 36 H s       :     0.661778  s :     0.661778
      pz      :     0.081252  p :     0.304324
      px      :     0.112319
      py      :     0.110753
      dz2     :     0.002943  d :     0.030947
      dxz     :     0.007384
      dyz     :     0.002311
      dx2y2   :     0.009812
      dxy     :     0.008498
 37 H s       :     0.674823  s :     0.674823
      pz      :     0.078234  p :     0.301753
      px      :     0.113174
      py      :     0.110345
      dz2     :     0.002878  d :     0.030619
      dxz     :     0.003039
      dyz     :     0.006604
      dx2y2   :     0.009681
      dxy     :     0.008416
 38 H s       :     0.667623  s :     0.667623
      pz      :     0.080483  p :     0.297296
      px      :     0.099378
      py      :     0.117435
      dz2     :     0.002971  d :     0.030780
      dxz     :     0.005338
      dyz     :     0.004348
      dx2y2   :     0.009877
      dxy     :     0.008246
 39 H s       :     0.686882  s :     0.686882
      pz      :     0.111405  p :     0.317310
      px      :     0.094989
      py      :     0.110916
      dz2     :     0.007847  d :     0.031662
      dxz     :     0.006059
      dyz     :     0.008070
      dx2y2   :     0.004924
      dxy     :     0.004763
 40 H s       :     0.671686  s :     0.671686
      pz      :     0.112535  p :     0.316708
      px      :     0.119142
      py      :     0.085031
      dz2     :     0.009411  d :     0.030948
      dxz     :     0.008370
      dyz     :     0.006322
      dx2y2   :     0.002920
      dxy     :     0.003926
 41 H s       :     0.682025  s :     0.682025
      pz      :     0.083573  p :     0.271592
      px      :     0.079173
      py      :     0.108846
      dz2     :     0.005616  d :     0.030721
      dxz     :     0.002903
      dyz     :     0.007812
      dx2y2   :     0.006644
      dxy     :     0.007746
 42 H s       :     0.676249  s :     0.676249
      pz      :     0.080768  p :     0.320094
      px      :     0.112567
      py      :     0.126760
      dz2     :     0.003019  d :     0.031204
      dxz     :     0.000807
      dyz     :     0.008803
      dx2y2   :     0.009253
      dxy     :     0.009323
 43 H s       :     0.690816  s :     0.690816
      pz      :     0.113185  p :     0.284744
      px      :     0.089509
      py      :     0.082050
      dz2     :     0.009181  d :     0.030766
      dxz     :     0.007536
      dyz     :     0.007018
      dx2y2   :     0.003423
      dxy     :     0.003608
 44 H s       :     0.682983  s :     0.682983
      pz      :     0.082589  p :     0.267308
      px      :     0.107681
      py      :     0.077037
      dz2     :     0.005953  d :     0.029782
      dxz     :     0.008166
      dyz     :     0.002506
      dx2y2   :     0.006101
      dxy     :     0.007055
 45 H s       :     0.685252  s :     0.685252
      pz      :     0.083434  p :     0.267778
      px      :     0.074834
      py      :     0.109509
      dz2     :     0.005859  d :     0.030432
      dxz     :     0.002413
      dyz     :     0.008349
      dx2y2   :     0.006065
      dxy     :     0.007746
 46 H s       :     0.669603  s :     0.669603
      pz      :     0.114163  p :     0.336598
      px      :     0.123414
      py      :     0.099021
      dz2     :     0.008424  d :     0.031370
      dxz     :     0.007075
      dyz     :     0.006679
      dx2y2   :     0.004289
      dxy     :     0.004902


                      *****************************
                      * MAYER POPULATION ANALYSIS *
                      *****************************

  NA   - Mulliken gross atomic population
  ZA   - Total nuclear charge
  QA   - Mulliken gross atomic charge
  VA   - Mayer's total valence
  BVA  - Mayer's bonded valence
  FA   - Mayer's free valence

  ATOM       NA         ZA         QA         VA         BVA        FA
  0 Ru    17.5695    16.0000    -1.5695     6.1497     6.1497    -0.0000
  1 C      5.7243     6.0000     0.2757     0.8618     0.8618    -0.0000
  2 C      4.8016     6.0000     1.1984    -0.8796    -0.8796     0.0000
  3 C      5.3134     6.0000     0.6866     1.2103     1.2103     0.0000
  4 C      5.2841     6.0000     0.7159     0.0110     0.0110     0.0000
  5 C      4.8451     6.0000     1.1549     0.3769     0.3769    -0.0000
  6 C      7.5439     6.0000    -1.5439     3.0972     3.0972     0.0000
  7 H      0.6512     1.0000     0.3488     0.9880     0.9880    -0.0000
  8 H      0.5974     1.0000     0.4026     0.9166     0.9166     0.0000
  9 H      0.6227     1.0000     0.3773     0.9877     0.9877     0.0000
 10 C      7.8711     6.0000    -1.8711     3.2781     3.2781     0.0000
 11 H      0.6316     1.0000     0.3684     0.8950     0.8950     0.0000
 12 H      0.7174     1.0000     0.2826     1.0521     1.0521    -0.0000
 13 H      0.6425     1.0000     0.3575     0.9804     0.9804     0.0000
 14 C      7.6595     6.0000    -1.6595     3.2619     3.2619     0.0000
 15 H      0.6410     1.0000     0.3590     0.9626     0.9626     0.0000
 16 H      0.7192     1.0000     0.2808     1.0735     1.0735     0.0000
 17 H      0.6669     1.0000     0.3331     0.9483     0.9483     0.0000
 18 C      7.6316     6.0000    -1.6316     3.1272     3.1272    -0.0000
 19 H      0.6489     1.0000     0.3511     1.0129     1.0129    -0.0000
 20 H      0.6366     1.0000     0.3634     0.9502     0.9502     0.0000
 21 H      0.6895     1.0000     0.3105     0.9964     0.9964    -0.0000
 22 C      7.5818     6.0000    -1.5818     3.2630     3.2630     0.0000
 23 H      0.6136     1.0000     0.3864     0.9217     0.9217     0.0000
 24 H      0.7020     1.0000     0.2980     1.0385     1.0385     0.0000
 25 H      0.6736     1.0000     0.3264     1.0077     1.0077     0.0000
 26 Cl    17.4258    17.0000    -0.4258     0.9247     0.9247    -0.0000
 27 C      7.2194     6.0000    -1.2194     1.0660     1.0660    -0.0000
 28 C      5.2305     6.0000     0.7695     0.4431     0.4431     0.0000
 29 C      7.0899     6.0000    -1.0899     3.5102     3.5102    -0.0000
 30 C      7.5122     6.0000    -1.5122     3.5040     3.5040    -0.0000
 31 C      5.8794     6.0000     0.1206     1.3910     1.3910     0.0000
 32 C      5.9710     6.0000     0.0290     2.5641     2.5641    -0.0000
 33 C      7.0765     6.0000    -1.0765     3.0539     3.0539    -0.0000
 34 C      6.6923     6.0000    -0.6923     3.1360     3.1360     0.0000
 35 H      0.4720     1.0000     0.5280     0.7196     0.7196    -0.0000
 36 H      0.6740     1.0000     0.3260     0.9622     0.9622    -0.0000
 37 H      0.7547     1.0000     0.2453     1.0824     1.0824    -0.0000
 38 H      0.6984     1.0000     0.3016     0.9818     0.9818     0.0000
 39 H      0.5333     1.0000     0.4667     0.9804     0.9804    -0.0000
 40 H      0.0094     1.0000     0.9906    -0.1456    -0.1456     0.0000
 41 H      0.6452     1.0000     0.3548     0.9380     0.9380     0.0000
 42 H      0.5629     1.0000     0.4371     0.9035     0.9035    -0.0000
 43 H      0.6457     1.0000     0.3543     0.9890     0.9890    -0.0000
 44 H      0.5280     1.0000     0.4720     0.8207     0.8207    -0.0000
 45 H      0.5574     1.0000     0.4426     0.8415     0.8415    -0.0000
 46 H      0.1421     1.0000     0.8579    -0.0434    -0.0434    -0.0000

  Mayer bond orders larger than 0.100000
B(  0-Ru,  1-C ) :   0.8698 B(  0-Ru,  2-C ) :   0.4898 B(  0-Ru,  3-C ) :   0.5472 
B(  0-Ru,  4-C ) :   0.3404 B(  0-Ru, 10-C ) :   0.2345 B(  0-Ru, 22-C ) :   0.1239 
B(  0-Ru, 26-Cl) :   0.8806 B(  0-Ru, 27-C ) :   0.9819 B(  0-Ru, 28-C ) :  -0.1330 
B(  0-Ru, 29-C ) :   0.4681 B(  0-Ru, 30-C ) :   0.1543 B(  0-Ru, 31-C ) :   0.7936 
B(  0-Ru, 32-C ) :   0.2872 B(  0-Ru, 34-C ) :   0.1076 B(  1-C ,  2-C ) :  -0.3455 
B(  1-C ,  3-C ) :  -0.1536 B(  1-C ,  4-C ) :   0.3621 B(  1-C ,  5-C ) :  -0.3532 
B(  1-C ,  6-C ) :   0.1604 B(  1-C ,  7-H ) :  -0.2060 B(  1-C ,  8-H ) :  -0.1544 
B(  1-C , 22-C ) :   0.1832 B(  1-C , 26-Cl) :   0.1559 B(  1-C , 27-C ) :   0.2218 
B(  1-C , 28-C ) :  -0.2165 B(  1-C , 29-C ) :   0.1231 B(  2-C ,  3-C ) :  -0.1410 
B(  2-C ,  4-C ) :  -0.4296 B(  2-C , 14-C ) :   0.1492 B(  2-C , 24-H ) :  -0.2222 
B(  2-C , 25-H ) :  -0.2024 B(  2-C , 26-Cl) :  -0.1116 B(  2-C , 27-C ) :  -0.3514 
B(  2-C , 30-C ) :   0.1227 B(  2-C , 31-C ) :  -0.1093 B(  3-C ,  4-C ) :   0.3000 
B(  3-C ,  5-C ) :   0.7901 B(  3-C ,  6-C ) :   0.1053 B(  3-C , 10-C ) :  -0.2350 
B(  3-C , 14-C ) :   0.3076 B(  3-C , 16-H ) :  -0.1711 B(  3-C , 17-H ) :  -0.1935 
B(  3-C , 27-C ) :  -0.1443 B(  3-C , 28-C ) :  -0.1670 B(  4-C ,  5-C ) :  -0.3792 
B(  4-C , 10-C ) :   0.2722 B(  4-C , 11-H ) :  -0.1841 B(  4-C , 12-H ) :  -0.2027 
B(  4-C , 14-C ) :  -0.1850 B(  4-C , 26-Cl) :  -0.3023 B(  4-C , 27-C ) :   0.1491 
B(  4-C , 28-C ) :   0.1569 B(  4-C , 32-C ) :  -0.1494 B(  5-C , 20-H ) :  -0.2013 
B(  5-C , 21-H ) :  -0.1756 B(  5-C , 26-Cl) :   0.1407 B(  5-C , 28-C ) :   0.3039 
B(  5-C , 32-C ) :   0.1695 B(  6-C ,  7-H ) :   0.9890 B(  6-C ,  8-H ) :   0.9280 
B(  6-C ,  9-H ) :   0.8019 B(  6-C , 40-H ) :  -0.1040 B( 10-C , 11-H ) :   0.9207 
B( 10-C , 12-H ) :   1.0383 B( 10-C , 13-H ) :   0.9354 B( 14-C , 15-H ) :   0.8888 
B( 14-C , 16-H ) :   1.0406 B( 14-C , 17-H ) :   0.9590 B( 18-C , 19-H ) :   0.8735 
B( 18-C , 20-H ) :   0.9800 B( 18-C , 21-H ) :   1.0454 B( 18-C , 31-C ) :   0.1058 
B( 22-C , 23-H ) :   0.7908 B( 22-C , 24-H ) :   1.1026 B( 22-C , 25-H ) :   1.0100 
B( 24-H , 25-H ) :   0.1074 B( 26-Cl, 27-C ) :   0.1945 B( 26-Cl, 32-C ) :  -0.1795 
B( 26-Cl, 33-C ) :   0.1367 B( 26-Cl, 34-C ) :  -0.2622 B( 27-C , 28-C ) :  -0.6563 
B( 27-C , 29-C ) :  -0.1291 B( 27-C , 32-C ) :  -0.3137 B( 27-C , 33-C ) :   0.1271 
B( 27-C , 34-C ) :   0.5067 B( 27-C , 37-H ) :  -0.1131 B( 27-C , 38-H ) :  -0.1515 
B( 27-C , 39-H ) :   1.1330 B( 27-C , 40-H ) :  -0.4043 B( 28-C , 29-C ) :   0.9169 
B( 28-C , 32-C ) :   0.1761 B( 28-C , 36-H ) :   0.1031 B( 28-C , 39-H ) :  -0.2914 
B( 28-C , 40-H ) :   0.3634 B( 29-C , 30-C ) :   0.5322 B( 29-C , 35-H ) :   0.7628 
B( 29-C , 37-H ) :   1.0868 B( 30-C , 31-C ) :   0.5069 B( 30-C , 34-C ) :   0.2029 
B( 30-C , 36-H ) :   1.1761 B( 30-C , 45-H ) :   0.8372 B( 31-C , 32-C ) :   0.7194 
B( 31-C , 33-C ) :  -0.2545 B( 31-C , 34-C ) :  -0.1227 B( 31-C , 36-H ) :  -0.1973 
B( 31-C , 43-H ) :  -0.1474 B( 31-C , 46-H ) :   0.1944 B( 32-C , 33-C ) :   0.7115 
B( 32-C , 34-C ) :   0.1745 B( 32-C , 43-H ) :   1.0595 B( 32-C , 46-H ) :  -0.1596 
B( 33-C , 34-C ) :   0.5550 B( 33-C , 42-H ) :   0.9373 B( 33-C , 44-H ) :   0.8352 
B( 34-C , 38-H ) :   1.1094 B( 34-C , 41-H ) :   0.9236 

-------
TIMINGS
-------

Total SCF time: 0 days 1 hours 12 min 38 sec 

Total time                  ....    4358.002 sec
Sum of individual times     ....    4354.826 sec  ( 99.9%)

Fock matrix formation       ....    4340.254 sec  ( 99.6%)
  XC integration            ....      40.583 sec  (  0.9% of F)
    Basis function eval.    ....       3.810 sec  (  9.4% of XC)
    Density eval.           ....      17.283 sec  ( 42.6% of XC)
    XC-Functional eval.     ....       0.233 sec  (  0.6% of XC)
    XC-Potential eval.      ....      16.754 sec  ( 41.3% of XC)
Diagonalization             ....       4.749 sec  (  0.1%)
Density matrix formation    ....       0.264 sec  (  0.0%)
Population analysis         ....       0.359 sec  (  0.0%)
Initial guess               ....       3.135 sec  (  0.1%)
Orbital Transformation      ....       0.000 sec  (  0.0%)
Orbital Orthonormalization  ....       0.000 sec  (  0.0%)
DIIS solution               ....       4.734 sec  (  0.1%)
Grid generation             ....       1.330 sec  (  0.0%)

-------------------------   --------------------
FINAL SINGLE POINT ENERGY     -1257.211609157902
-------------------------   --------------------


                            ***************************************
                            *     ORCA property calculations      *
                            ***************************************

                                    ---------------------
                                    Active property flags
                                    ---------------------
   (+) Dipole Moment


------------------------------------------------------------------------------
                       ORCA ELECTRIC PROPERTIES CALCULATION
------------------------------------------------------------------------------

Dipole Moment Calculation                       ... on
Quadrupole Moment Calculation                   ... off
Polarizability Calculation                      ... off
GBWName                                         ... MOR14_ed26.gbw
Electron density file                           ... MOR14_ed26.scfp
The origin for moment calculation is the CENTER OF MASS  = (-0.001027, -0.085807 -0.008956)

-------------
DIPOLE MOMENT
-------------
                                X             Y             Z
Electronic contribution:     -3.08831     -21.61970      -2.00621
Nuclear contribution   :      3.57716      23.71136       2.15126
                        -----------------------------------------
Total Dipole Moment    :      0.48885       2.09167       0.14505
                        -----------------------------------------
Magnitude (a.u.)       :      2.15292
Magnitude (Debye)      :      5.47230



--------------------
Rotational spectrum 
--------------------
 
Rotational constants in cm-1:     0.013422     0.011126     0.009459 
Rotational constants in MHz :   402.378908   333.556426   283.583792 

 Dipole components along the rotational axes: 
x,y,z [a.u.] :     0.553493     2.077751     0.108087 
x,y,z [Debye]:     1.406866     5.281223     0.274734 

 

Timings for individual modules:

Sum of individual times         ...     4366.108 sec (=  72.768 min)
GTO integral calculation        ...        7.674 sec (=   0.128 min)   0.2 %
SCF iterations                  ...     4358.434 sec (=  72.641 min)  99.8 %
                             ****ORCA TERMINATED NORMALLY****
TOTAL RUN TIME: 0 days 1 hours 12 minutes 47 seconds 52 msec
