
                                 *****************
                                 * O   R   C   A *
                                 *****************

           --- An Ab Initio, DFT and Semiempirical electronic structure package ---

                  #######################################################
                  #                        -***-                        #
                  #          Department of theory and spectroscopy      #
                  #               Directorship: Frank Neese             #
                  #        Max Planck Institute fuer Kohlenforschung    #
                  #                Kaiser Wilhelm Platz 1               #
                  #                 D-45470 Muelheim/Ruhr               #
                  #                      Germany                        #
                  #                                                     #
                  #                  All rights reserved                #
                  #                        -***-                        #
                  #######################################################


                         Program Version 4.2.0 -  RELEASE  -


 With contributions from (in alphabetic order):
   Daniel Aravena         : Magnetic Suceptibility
   Michael Atanasov       : Ab Initio Ligand Field Theory (pilot matlab implementation)
   Alexander A. Auer      : GIAO ZORA, VPT2
   Ute Becker             : Parallelization
   Giovanni Bistoni       : ED, misc. LED, open-shell LED, HFLED
   Martin Brehm           : Molecular dynamics
   Dmytro Bykov           : SCF Hessian
   Vijay G. Chilkuri      : MRCI spin determinant printing, contributions to CSF-ICE
   Dipayan Datta          : RHF DLPNO-CCSD density
   Achintya Kumar Dutta   : EOM-CC, STEOM-CC
   Dmitry Ganyushin       : Spin-Orbit,Spin-Spin,Magnetic field MRCI
   Miquel Garcia          : C-PCM Hessian, Gaussian charge scheme
   Yang Guo               : DLPNO-NEVPT2, CIM, IAO-localization
   Andreas Hansen         : Spin unrestricted coupled pair/coupled cluster methods
   Benjamin Helmich-Paris : CASSCF linear response (MC-RPA)
   Lee Huntington         : MR-EOM, pCC
   Robert Izsak           : Overlap fitted RIJCOSX, COSX-SCS-MP3, EOM
   Christian Kollmar      : KDIIS, OOCD, Brueckner-CCSD(T), CCSD density
   Simone Kossmann        : Meta GGA functionals, TD-DFT gradient, OOMP2, MP2 Hessian
   Martin Krupicka        : AUTO-CI
   Lucas Lang             : DCDCAS
   Dagmar Lenk            : GEPOL surface, SMD
   Dimitrios Liakos       : Extrapolation schemes; Compound Job, initial MDCI parallelization
   Dimitrios Manganas     : Further ROCIS development; embedding schemes
   Dimitrios Pantazis     : SARC Basis sets
   Taras Petrenko         : DFT Hessian,TD-DFT gradient, ASA, ECA, R-Raman, ABS, FL, XAS/XES, NRVS
   Peter Pinski           : DLPNO-MP2, DLPNO-MP2 Gradient
   Christoph Reimann      : Effective Core Potentials
   Marius Retegan         : Local ZFS, SOC
   Christoph Riplinger    : Optimizer, TS searches, QM/MM, DLPNO-CCSD(T), (RO)-DLPNO pert. Triples
   Tobias Risthaus        : Range-separated hybrids, TD-DFT gradient, RPA, STAB
   Michael Roemelt        : Original ROCIS implementation
   Masaaki Saitow         : Open-shell DLPNO-CCSD energy and density
   Barbara Sandhoefer     : DKH picture change effects
   Avijit Sen             : IP-ROCIS
   Kantharuban Sivalingam : CASSCF convergence, NEVPT2, FIC-MRCI
   Bernardo de Souza      : ESD, SOC TD-DFT
   Georgi Stoychev        : AutoAux, RI-MP2 NMR
   Willem Van den Heuvel  : Paramagnetic NMR
   Boris Wezisla          : Elementary symmetry handling
   Frank Wennmohs         : Technical directorship


 We gratefully acknowledge several colleagues who have allowed us to
 interface, adapt or use parts of their codes:
   Stefan Grimme, W. Hujo, H. Kruse,             : VdW corrections, initial TS optimization,
                  C. Bannwarth                     DFT functionals, gCP, sTDA/sTD-DF
   Ed Valeev, F. Pavosevic, A. Kumar             : LibInt (2-el integral package), F12 methods
   Garnet Chan, S. Sharma, J. Yang, R. Olivares  : DMRG
   Ulf Ekstrom                                   : XCFun DFT Library
   Mihaly Kallay                                 : mrcc  (arbitrary order and MRCC methods)
   Andreas Klamt, Michael Diedenhofen            : otool_cosmo (COSMO solvation model)
   Jiri Pittner, Ondrej Demel                    : Mk-CCSD
   Frank Weinhold                                : gennbo (NPA and NBO analysis)
   Christopher J. Cramer and Donald G. Truhlar   : smd solvation model
   Lars Goerigk                                  : TD-DFT with DH, B97 family of functionals
   V. Asgeirsson, H. Jonsson                     : NEB implementation
   FAccTs GmbH                                   : IRC, NEB, NEB-TS, Multilevel, MM, QM/MM, CI optimization
   S Lehtola, MJT Oliveira, MAL Marques          : LibXC Library


 Your calculation uses the libint2 library for the computation of 2-el integrals
 For citations please refer to: http://libint.valeyev.net

 Your ORCA version has been built with support for libXC version: 4.2.3
 For citations please refer to: https://tddft.org/programs/libxc/

 This ORCA versions uses:
   CBLAS   interface :  Fast vector & matrix operations
   LAPACKE interface :  Fast linear algebra routines
   SCALAPACK package :  Parallel linear algebra routines


Your calculation utilizes the DFT-NL dispersion correction.
Cite in your paper:
Vydrov, O. A.; Van Voorhis, T. J. Chem. Phys. 2010, 133, 244103
Hujo, W.; Grimme, S. J. Chem. Theory Comput. 2011, 7, 3866 
   

----- Orbital basis set information -----
Your calculation utilizes the basis: def2-TZVPPD
   F. Weigend and R. Ahlrichs, Phys. Chem. Chem. Phys. 7, 3297 (2005).
   D. Rappoport and F. Furche, J. Chem. Phys. 133 134105 (2010).

----- AuxJK basis set information -----
Your calculation utilizes the auxiliary basis: def2/JK
   H-Ba, Hf-Rn: F. Weigend, J. Comput. Chem. 29, 167 (2008).

cite the ECPs for Rh [Def2-ECP] as follows:
Ce-Yb(ecp-28): M. Dolg, H. Stoll, H.Preuss, J. Chem. Phys., 1989, 90, 1730-1734.
Y-Cd(ecp-28), Hf-Hg(ecp-46): D. Andrae,U. Haeussermann, M. Dolg, H. Stoll, H. Preuss, Theor. Chim. Acta, 1990, 77, 123-141.
In-Sb(ecp-28), Tl-Bi(ecp-46): B. Metz, H. Stoll, M. Dolg, J. Chem. Phys., 2000, 113, 2563-2569.
Te-Xe(ecp-28), Po-Rn(ecp-46): K. A. Peterson, D. Figgen, E. Goll, H. Stoll, M. Dolg, J. Chem. Phys., 2003, 119, 11113-11123.
Rb(ecp-28), Cs(ecp-46): T. Leininger, A. Nicklass, W. Kuechle, H. Stoll, M. Dolg, A. Bergner, Chem. Phys. Lett., 1996, 255, 274-280.
Sr(ecp-28), Ba(ecp-46): M. Kaupp, P. V. Schleyer, H. Stoll and H. Preuss, J. Chem. Phys., 1991, 94, 1360-1366.
La(ecp-46): M. Dolg, H. Stoll, A. Savin, H. Preuss, Theor. Chim. Acta, 1989, 75, 173-194.
Lu(ecp-28): X. Cao, M. Dolg, J. Chem. Phys., 2001, 115, 7348-7355.

ECP parameters for Rh [Def2-ECP] have been obtained from:
TURBOMOLE (7.0.2)

================================================================================
                                        WARNINGS
                       Please study these warnings very carefully!
================================================================================


INFO   : the flag for use of LIBINT has been found!

================================================================================
                                       INPUT FILE
================================================================================
NAME = MOR10_ed09.in
|  1> #
|  2> # MOR10_ed09 wB97M-V/Def2-TZVPPD
|  3> #
|  4> ! wb97m-v def2-tzvppd def2/jk grid4 nofinalgrid
|  5> 
|  6> *xyz 0 1
|  7> C        0.808995    0.630455    2.540471 
|  8> C        1.251846    1.095590    1.293526 
|  9> C        1.383898    2.476779    1.093534 
| 10> C        1.096273    3.369549    2.123624 
| 11> C        0.674512    2.896605    3.366402 
| 12> C        0.527691    1.524549    3.571013 
| 13> P        1.574642   -0.069667   -0.082699 
| 14> C        2.832960    0.843508   -1.058615 
| 15> C        2.470614    1.376098   -2.300811 
| 16> C        3.389175    2.120533   -3.040434 
| 17> C        4.677141    2.329565   -2.547864 
| 18> C        5.047172    1.790502   -1.313611 
| 19> C        4.129605    1.051595   -0.570111 
| 20> Rh      -0.002604   -0.796146   -1.344377 
| 21> Cl       1.074079   -1.834200   -3.101706 
| 22> P       -1.622228   -0.075877   -0.088018 
| 23> C       -1.803842    1.702415    0.297126 
| 24> C       -2.229632    2.223789    1.521581 
| 25> C       -2.349352    3.604004    1.692487 
| 26> C       -2.048907    4.471915    0.644369 
| 27> C       -1.606201    3.958746   -0.577355 
| 28> C       -1.475459    2.583893   -0.746478 
| 29> C       -3.062543   -0.419252   -1.169366 
| 30> C       -3.141320   -1.718422   -1.702099 
| 31> C       -4.157899   -2.054399   -2.592475 
| 32> C       -5.110047   -1.100127   -2.955969 
| 33> C       -5.041177    0.189383   -2.426273 
| 34> C       -4.021006    0.532927   -1.539475 
| 35> C       -2.066176   -1.000166    1.430207 
| 36> C       -1.181452   -1.986758    1.882501 
| 37> C       -1.497950   -2.762866    2.997043 
| 38> C       -2.708929   -2.565810    3.661246 
| 39> C       -3.611118   -1.604929    3.197782 
| 40> C       -3.296146   -0.830428    2.082866 
| 41> C        2.526762   -1.412838    0.731905 
| 42> C        3.276788   -1.210573    1.900876 
| 43> C        4.004905   -2.259926    2.460546 
| 44> C        3.996021   -3.518658    1.858231 
| 45> C        3.258939   -3.724012    0.690924 
| 46> C        2.525229   -2.679846    0.130400 
| 47> H       -2.400862   -2.462118   -1.411221 
| 48> H       -4.205196   -3.058543   -3.003745 
| 49> H       -5.903513   -1.360959   -3.650464 
| 50> H       -5.783053    0.932397   -2.706210 
| 51> H       -3.967070    1.539632   -1.137031 
| 52> H       -2.450107    1.557807    2.348608 
| 53> H       -2.671735    3.999637    2.651651 
| 54> H       -2.145762    5.545320    0.781176 
| 55> H       -1.354424    4.630618   -1.393167 
| 56> H       -1.106831    2.171328   -1.683412 
| 57> H       -0.254747   -2.145782    1.334840 
| 58> H       -0.803470   -3.525000    3.339550 
| 59> H       -2.958943   -3.170852    4.528281 
| 60> H       -4.564895   -1.467934    3.699990 
| 61> H       -4.014311   -0.106909    1.706849 
| 62> H        3.285372   -0.236670    2.380292 
| 63> H        4.578140   -2.092663    3.368393 
| 64> H        4.561493   -4.335782    2.297848 
| 65> H        3.251715   -4.700268    0.214323 
| 66> H        1.950377   -2.830532   -0.780423 
| 67> H        1.471910    1.178524   -2.682000 
| 68> H        3.101239    2.524675   -4.006836 
| 69> H        5.396289    2.901586   -3.127755 
| 70> H        6.053788    1.939891   -0.932858 
| 71> H        4.425922    0.628717    0.384972 
| 72> H        1.719088    2.850389    0.131432 
| 73> H        1.199114    4.437105    1.952609 
| 74> H        0.454504    3.594780    4.169138 
| 75> H        0.193294    1.146402    4.533186 
| 76> H        0.698101   -0.433995    2.712341 
| 77> *
| 78> 
| 79> %maxcore 5000
| 80> 
| 81> %pal
| 82> nprocs = 28
| 83> end
| 84> 
| 85> 
| 86>                          ****END OF INPUT****
================================================================================

                       ****************************
                       * Single Point Calculation *
                       ****************************

---------------------------------
CARTESIAN COORDINATES (ANGSTROEM)
---------------------------------
  C      0.808995    0.630455    2.540471
  C      1.251846    1.095590    1.293526
  C      1.383898    2.476779    1.093534
  C      1.096273    3.369549    2.123624
  C      0.674512    2.896605    3.366402
  C      0.527691    1.524549    3.571013
  P      1.574642   -0.069667   -0.082699
  C      2.832960    0.843508   -1.058615
  C      2.470614    1.376098   -2.300811
  C      3.389175    2.120533   -3.040434
  C      4.677141    2.329565   -2.547864
  C      5.047172    1.790502   -1.313611
  C      4.129605    1.051595   -0.570111
  Rh    -0.002604   -0.796146   -1.344377
  Cl     1.074079   -1.834200   -3.101706
  P     -1.622228   -0.075877   -0.088018
  C     -1.803842    1.702415    0.297126
  C     -2.229632    2.223789    1.521581
  C     -2.349352    3.604004    1.692487
  C     -2.048907    4.471915    0.644369
  C     -1.606201    3.958746   -0.577355
  C     -1.475459    2.583893   -0.746478
  C     -3.062543   -0.419252   -1.169366
  C     -3.141320   -1.718422   -1.702099
  C     -4.157899   -2.054399   -2.592475
  C     -5.110047   -1.100127   -2.955969
  C     -5.041177    0.189383   -2.426273
  C     -4.021006    0.532927   -1.539475
  C     -2.066176   -1.000166    1.430207
  C     -1.181452   -1.986758    1.882501
  C     -1.497950   -2.762866    2.997043
  C     -2.708929   -2.565810    3.661246
  C     -3.611118   -1.604929    3.197782
  C     -3.296146   -0.830428    2.082866
  C      2.526762   -1.412838    0.731905
  C      3.276788   -1.210573    1.900876
  C      4.004905   -2.259926    2.460546
  C      3.996021   -3.518658    1.858231
  C      3.258939   -3.724012    0.690924
  C      2.525229   -2.679846    0.130400
  H     -2.400862   -2.462118   -1.411221
  H     -4.205196   -3.058543   -3.003745
  H     -5.903513   -1.360959   -3.650464
  H     -5.783053    0.932397   -2.706210
  H     -3.967070    1.539632   -1.137031
  H     -2.450107    1.557807    2.348608
  H     -2.671735    3.999637    2.651651
  H     -2.145762    5.545320    0.781176
  H     -1.354424    4.630618   -1.393167
  H     -1.106831    2.171328   -1.683412
  H     -0.254747   -2.145782    1.334840
  H     -0.803470   -3.525000    3.339550
  H     -2.958943   -3.170852    4.528281
  H     -4.564895   -1.467934    3.699990
  H     -4.014311   -0.106909    1.706849
  H      3.285372   -0.236670    2.380292
  H      4.578140   -2.092663    3.368393
  H      4.561493   -4.335782    2.297848
  H      3.251715   -4.700268    0.214323
  H      1.950377   -2.830532   -0.780423
  H      1.471910    1.178524   -2.682000
  H      3.101239    2.524675   -4.006836
  H      5.396289    2.901586   -3.127755
  H      6.053788    1.939891   -0.932858
  H      4.425922    0.628717    0.384972
  H      1.719088    2.850389    0.131432
  H      1.199114    4.437105    1.952609
  H      0.454504    3.594780    4.169138
  H      0.193294    1.146402    4.533186
  H      0.698101   -0.433995    2.712341

----------------------------
CARTESIAN COORDINATES (A.U.)
----------------------------
  NO LB      ZA    FRAG     MASS         X           Y           Z
   0 C     6.0000    0    12.011    1.528779    1.191387    4.800794
   1 C     6.0000    0    12.011    2.365646    2.070365    2.444410
   2 C     6.0000    0    12.011    2.615188    4.680434    2.066480
   3 C     6.0000    0    12.011    2.071656    6.367525    4.013068
   4 C     6.0000    0    12.011    1.274643    5.473790    6.361578
   5 C     6.0000    0    12.011    0.997191    2.880980    6.748237
   6 P    15.0000    0    30.974    2.975642   -0.131652   -0.156278
   7 C     6.0000    0    12.011    5.353519    1.593999   -2.000492
   8 C     6.0000    0    12.011    4.668784    2.600448   -4.347903
   9 C     6.0000    0    12.011    6.404613    4.007227   -5.745588
  10 C     6.0000    0    12.011    8.838516    4.402240   -4.814765
  11 C     6.0000    0    12.011    9.537773    3.383558   -2.482365
  12 C     6.0000    0    12.011    7.803822    1.987227   -1.077354
  13 Rh   17.0000*   0   102.910   -0.004921   -1.504498   -2.540504
  14 Cl   17.0000    0    35.453    2.029715   -3.466136   -5.861375
  15 P    15.0000    0    30.974   -3.065567   -0.143387   -0.166330
  16 C     6.0000    0    12.011   -3.408767    3.217098    0.561487
  17 C     6.0000    0    12.011   -4.213394    4.202352    2.875371
  18 C     6.0000    0    12.011   -4.439632    6.810581    3.198337
  19 C     6.0000    0    12.011   -3.871873    8.450695    1.217681
  20 C     6.0000    0    12.011   -3.035280    7.480946   -1.091043
  21 C     6.0000    0    12.011   -2.788213    4.882850   -1.410639
  22 C     6.0000    0    12.011   -5.787368   -0.792271   -2.209781
  23 C     6.0000    0    12.011   -5.936234   -3.247347   -3.216501
  24 C     6.0000    0    12.011   -7.857290   -3.882251   -4.899068
  25 C     6.0000    0    12.011   -9.656589   -2.078939   -5.585972
  26 C     6.0000    0    12.011   -9.526444    0.357882   -4.584991
  27 C     6.0000    0    12.011   -7.598600    1.007086   -2.909186
  28 C     6.0000    0    12.011   -3.904507   -1.890040    2.702700
  29 C     6.0000    0    12.011   -2.232621   -3.754429    3.557411
  30 C     6.0000    0    12.011   -2.830715   -5.221060    5.663590
  31 C     6.0000    0    12.011   -5.119134   -4.848678    6.918752
  32 C     6.0000    0    12.011   -6.824024   -3.032876    6.042932
  33 C     6.0000    0    12.011   -6.228813   -1.569281    3.936046
  34 C     6.0000    0    12.011    4.774888   -2.669877    1.383100
  35 C     6.0000    0    12.011    6.192232   -2.287651    3.592135
  36 C     6.0000    0    12.011    7.568174   -4.270641    4.649758
  37 C     6.0000    0    12.011    7.551385   -6.649300    3.511548
  38 C     6.0000    0    12.011    6.158502   -7.037363    1.305657
  39 C     6.0000    0    12.011    4.771991   -5.064175    0.246420
  40 H     1.0000    0     1.008   -4.536972   -4.652729   -2.666821
  41 H     1.0000    0     1.008   -7.946669   -5.779809   -5.676255
  42 H     1.0000    0     1.008  -11.156023   -2.571840   -6.898377
  43 H     1.0000    0     1.008  -10.928386    1.761975   -5.113996
  44 H     1.0000    0     1.008   -7.496676    2.909483   -2.148677
  45 H     1.0000    0     1.008   -4.630031    2.943829    4.438226
  46 H     1.0000    0     1.008   -5.048847    7.558219    5.010894
  47 H     1.0000    0     1.008   -4.054903   10.479136    1.476209
  48 H     1.0000    0     1.008   -2.559490    8.750600   -2.632704
  49 H     1.0000    0     1.008   -2.091607    4.103215   -3.181188
  50 H     1.0000    0     1.008   -0.481402   -4.054940    2.522482
  51 H     1.0000    0     1.008   -1.518338   -6.661285    6.310835
  52 H     1.0000    0     1.008   -5.591592   -5.992042    8.557211
  53 H     1.0000    0     1.008   -8.626401   -2.773993    6.991968
  54 H     1.0000    0     1.008   -7.585948   -0.202029    3.225477
  55 H     1.0000    0     1.008    6.208453   -0.447241    4.498100
  56 H     1.0000    0     1.008    8.651431   -3.954560    6.365340
  57 H     1.0000    0     1.008    8.619973   -8.193441    4.342303
  58 H     1.0000    0     1.008    6.144851   -8.882219    0.405012
  59 H     1.0000    0     1.008    3.685678   -5.348930   -1.474786
  60 H     1.0000    0     1.008    2.781507    2.227088   -5.068245
  61 H     1.0000    0     1.008    5.860492    4.770944   -7.571823
  62 H     1.0000    0     1.008   10.197508    5.483203   -5.910600
  63 H     1.0000    0     1.008   11.440001    3.665863   -1.762846
  64 H     1.0000    0     1.008    8.363780    1.188103    0.727492
  65 H     1.0000    0     1.008    3.248606    5.386455    0.248370
  66 H     1.0000    0     1.008    2.265997    8.384913    3.689896
  67 H     1.0000    0     1.008    0.858888    6.793150    7.878529
  68 H     1.0000    0     1.008    0.365273    2.166386    8.566480
  69 H     1.0000    0     1.008    1.319220   -0.820132    5.125582
* core charge reduced due to ECP

--------------------------------
INTERNAL COORDINATES (ANGSTROEM)
--------------------------------
 C      0   0   0     0.000000000000     0.00000000     0.00000000
 C      1   0   0     1.402618768394     0.00000000     0.00000000
 C      2   1   0     1.401826517258   118.90180699     0.00000000
 C      3   2   1     1.393144580302   120.42843219     0.83820739
 C      4   3   2     1.395010941011   120.25653494     0.05614847
 C      1   2   3     1.393037269787   120.56983421   358.87056170
 P      2   1   3     1.831943335447   120.83432960   183.02036390
 C      7   2   1     1.835664677659   101.75631923   206.91237124
 C      8   7   2     1.399284686628   118.93345329   250.88364388
 C      9   8   7     1.394625384135   120.22602970   177.42027668
 C     10   9   8     1.394695665398   120.06229825     0.43077663
 C     11  10   9     1.396743472130   119.92686884     0.10935244
 C     12  11  10     1.393091886466   120.12112872   359.60173541
 Rh     7   2   1     2.146464082542   121.82851499    82.75553087
 Cl    14   7   2     2.307597799368   104.89389407   168.60243162
 P     14   7   2     2.172649826967    95.48996015   347.94732276
 C     16  14   7     1.828562818991   121.21420767    59.69672999
 C     17  16  14     1.397289525832   125.28987829   216.90555073
 C     18  17  16     1.395899418103   120.15658434   180.97498081
 C     19  18  17     1.393588190202   120.34581645     0.15488265
 C     20  19  18     1.397118662524   119.81771675   359.02892369
 C     21  20  19     1.391372283504   119.93459909     0.43299219
 C     16  14   7     1.833501346319   100.51374466   172.27814484
 C     23  16  14     1.406361601409   116.13028508    50.29604268
 C     24  23  16     1.392509543646   120.39676507   183.51832406
 C     25  24  23     1.396190800687   119.96128407   359.70107647
 C     26  25  24     1.395763937568   119.93385930     0.00000000
 C     27  26  25     1.394697831783   120.32890195     0.32196931
 C     16  14   7     1.832049980991   119.51130497   282.35937928
 C     29  16  14     1.400239334213   118.03717543    12.69527644
 C     30  29  16     1.394531635149   120.45676772   182.95896016
 C     31  30  29     1.395158353301   119.92595169     0.57750926
 C     32  31  30     1.397152878957   119.98032857     0.92143998
 C     33  32  31     1.393591348581   120.10989407   359.17044683
 C      7   2   1     1.836905143565   102.90246661   314.58506758
 C     35   7   2     1.403546696673   122.74883741   335.16173334
 C     36  35   7     1.394462833208   120.32166871   181.42265913
 C     37  36  35     1.395445639394   120.14764842     0.22078509
 C     38  37  36     1.395731267934   119.80612139     0.18455377
 C     39  38  37     1.393843662048   120.27137079   359.56209911
 H     24  23  16     1.089023324389   119.44498214     3.62811337
 H     25  24  23     1.086133137256   119.79942019   179.54439023
 H     26  25  24     1.086252700989   120.03181252   179.99742497
 H     27  26  25     1.086652901133   120.01718825   180.16206512
 H     28  27  26     1.085506896458   120.03413027   179.47451870
 H     18  17  16     1.084488316524   120.07143612     2.14367626
 H     19  18  17     1.086486009240   119.57638837   180.60816763
 H     20  19  18     1.086413982006   120.09284417   179.85624797
 H     21  20  19     1.086440454630   120.19342074   181.02181995
 H     22  21  20     1.088090897841   120.74126662   181.62843481
 H     30  29  16     1.088119184888   118.58793099     1.78588529
 H     31  30  29     1.086490565723   119.81949676   180.04998212
 H     32  31  30     1.086431089939   120.06768174   179.84611620
 H     33  32  31     1.086586890689   120.01323518   178.49380313
 H     34  33  32     1.086567758989   119.83742379   178.02379391
 H     36  35   7     1.085541542052   120.08879578     2.01124803
 H     37  36  35     1.086628479197   119.66556180   180.28746079
 H     38  37  36     1.086606332049   120.02524557   180.20046084
 H     39  38  37     1.086405300481   120.17369648   179.70023055
 H     40  39  38     1.087547529917   120.74635557   179.83214102
 H      9   8   7     1.087083354124   118.68605252   356.08168287
 H     10   9   8     1.086356627385   119.72150707   179.59771948
 H     11  10   9     1.086579698976   120.10692748   179.42723845
 H     12  11  10     1.086538398671   120.13466148   179.17179969
 H     13  12  11     1.085731598629   119.75618332   179.52372273
 H      3   2   1     1.085162212116   119.65686381   180.41332350
 H      4   3   2     1.086047059129   119.59988151   180.26038658
 H      5   4   3     1.086387102457   120.10722170   179.76710998
 H      6   1   2     1.086551144285   119.59540479   180.49376559
 H      1   2   3     1.083923695947   119.92905203   179.81912703

---------------------------
INTERNAL COORDINATES (A.U.)
---------------------------
 C      0   0   0     0.000000000000     0.00000000     0.00000000
 C      1   0   0     2.650565342563     0.00000000     0.00000000
 C      2   1   0     2.649068204887   118.90180699     0.00000000
 C      3   2   1     2.632661721728   120.42843219     0.83820739
 C      4   3   2     2.636188632335   120.25653494     0.05614847
 C      1   2   3     2.632458934243   120.56983421   358.87056170
 P      2   1   3     3.461871196858   120.83432960   183.02036390
 C      7   2   1     3.468903514488   101.75631923   206.91237124
 C      8   7   2     2.644264841117   118.93345329   250.88364388
 C      9   8   7     2.635460035431   120.22602970   177.42027668
 C     10   9   8     2.635592847769   120.06229825     0.43077663
 C     11  10   9     2.639462641669   119.92686884     0.10935244
 C     12  11  10     2.632562144809   120.12112872   359.60173541
 Rh     7   2   1     4.056229272302   121.82851499    82.75553087
 Cl    14   7   2     4.360727868044   104.89389407   168.60243162
 P     14   7   2     4.105713157878    95.48996015   347.94732276
 C     16  14   7     3.455482946564   121.21420767    59.69672999
 C     17  16  14     2.640494533620   125.28987829   216.90555073
 C     18  17  16     2.637867610715   120.15658434   180.97498081
 C     19  18  17     2.633500022948   120.34581645     0.15488265
 C     20  19  18     2.640171648761   119.81771675   359.02892369
 C     21  20  19     2.629312566150   119.93459909     0.43299219
 C     16  14   7     3.464815410719   100.51374466   172.27814484
 C     23  16  14     2.657638271926   116.13028508    50.29604268
 C     24  23  16     2.631461676363   120.39676507   183.51832406
 C     25  24  23     2.638418243999   119.96128407   359.70107647
 C     26  25  24     2.637611589608   119.93385930     0.00000000
 C     27  26  25     2.635596941644   120.32890195     0.32196931
 C     16  14   7     3.462072727729   119.51130497   282.35937928
 C     29  16  14     2.646068863606   118.03717543    12.69527644
 C     30  29  16     2.635282875521   120.45676772   182.95896016
 C     31  30  29     2.636467201192   119.92595169     0.57750926
 C     32  31  30     2.640236308448   119.98032857     0.92143998
 C     33  32  31     2.633505991421   120.10989407   359.17044683
 C      7   2   1     3.471247655330   102.90246661   314.58506758
 C     35   7   2     2.652318872882   122.74883741   335.16173334
 C     36  35   7     2.635152858695   120.32166871   181.42265913
 C     37  36  35     2.637010093230   120.14764842     0.22078509
 C     38  37  36     2.637549852946   119.80612139     0.18455377
 C     39  38  37     2.633982794773   120.27137079   359.56209911
 H     24  23  16     2.057955836548   119.44498214     3.62811337
 H     25  24  23     2.052494174390   119.79942019   179.54439023
 H     26  25  24     2.052720117101   120.03181252   179.99742497
 H     27  26  25     2.053476385773   120.01718825   180.16206512
 H     28  27  26     2.051310750788   120.03413027   179.47451870
 H     18  17  16     2.049385913668   120.07143612     2.14367626
 H     19  18  17     2.053161005800   119.57638837   180.60816763
 H     20  19  18     2.053024894055   120.09284417   179.85624797
 H     21  20  19     2.053074920064   120.19342074   181.02181995
 H     22  21  20     2.056193805732   120.74126662   181.62843481
 H     30  29  16     2.056247260505   118.58793099     1.78588529
 H     31  30  29     2.053169616306   119.81949676   180.04998212
 H     32  31  30     2.053057223361   120.06768174   179.84611620
 H     33  32  31     2.053351644112   120.01323518   178.49380313
 H     34  33  32     2.053315490438   119.83742379   178.02379391
 H     36  35   7     2.051376221473   120.08879578     2.01124803
 H     37  36  35     2.053430235003   119.66556180   180.28746079
 H     38  37  36     2.053388382957   120.02524557   180.20046084
 H     39  38  37     2.053008488349   120.17369648   179.70023055
 H     40  39  38     2.055166989166   120.74635557   179.83214102
 H      9   8   7     2.054289824038   118.68605252   356.08168287
 H     10   9   8     2.052916509529   119.72150707   179.59771948
 H     11  10   9     2.053338053743   120.10692748   179.42723845
 H     12  11  10     2.053260007477   120.13466148   179.17179969
 H     13  12  11     2.051735376354   119.75618332   179.52372273
 H      3   2   1     2.050659391779   119.65686381   180.41332350
 H      4   3   2     2.052331510304   119.59988151   180.26038658
 H      5   4   3     2.052974099068   120.10722170   179.76710998
 H      6   1   2     2.053284093197   119.59540479   180.49376559
 H      1   2   3     2.048318935408   119.92905203   179.81912703

---------------------
BASIS SET INFORMATION
---------------------
There are 5 groups of distinct atoms

 Group   1 Type C   : 12s6p3d1f contracted to 6s3p3d1f pattern {621111/411/111/1}
 Group   2 Type P   : 15s9p4d1f contracted to 6s5p4d1f pattern {732111/51111/1111/1}
 Group   3 Type Rh  : 7s7p6d2f1g contracted to 6s4p3d2f1g pattern {211111/4111/411/11/1}
 Group   4 Type Cl  : 15s10p4d1f contracted to 6s6p4d1f pattern {732111/511111/1111/1}
 Group   5 Type H   : 5s3p1d contracted to 3s3p1d pattern {311/111/1}

Atom   0C    basis set group =>   1
Atom   1C    basis set group =>   1
Atom   2C    basis set group =>   1
Atom   3C    basis set group =>   1
Atom   4C    basis set group =>   1
Atom   5C    basis set group =>   1
Atom   6P    basis set group =>   2
Atom   7C    basis set group =>   1
Atom   8C    basis set group =>   1
Atom   9C    basis set group =>   1
Atom  10C    basis set group =>   1
Atom  11C    basis set group =>   1
Atom  12C    basis set group =>   1
Atom  13Rh   basis set group =>   3
Atom  14Cl   basis set group =>   4
Atom  15P    basis set group =>   2
Atom  16C    basis set group =>   1
Atom  17C    basis set group =>   1
Atom  18C    basis set group =>   1
Atom  19C    basis set group =>   1
Atom  20C    basis set group =>   1
Atom  21C    basis set group =>   1
Atom  22C    basis set group =>   1
Atom  23C    basis set group =>   1
Atom  24C    basis set group =>   1
Atom  25C    basis set group =>   1
Atom  26C    basis set group =>   1
Atom  27C    basis set group =>   1
Atom  28C    basis set group =>   1
Atom  29C    basis set group =>   1
Atom  30C    basis set group =>   1
Atom  31C    basis set group =>   1
Atom  32C    basis set group =>   1
Atom  33C    basis set group =>   1
Atom  34C    basis set group =>   1
Atom  35C    basis set group =>   1
Atom  36C    basis set group =>   1
Atom  37C    basis set group =>   1
Atom  38C    basis set group =>   1
Atom  39C    basis set group =>   1
Atom  40H    basis set group =>   5
Atom  41H    basis set group =>   5
Atom  42H    basis set group =>   5
Atom  43H    basis set group =>   5
Atom  44H    basis set group =>   5
Atom  45H    basis set group =>   5
Atom  46H    basis set group =>   5
Atom  47H    basis set group =>   5
Atom  48H    basis set group =>   5
Atom  49H    basis set group =>   5
Atom  50H    basis set group =>   5
Atom  51H    basis set group =>   5
Atom  52H    basis set group =>   5
Atom  53H    basis set group =>   5
Atom  54H    basis set group =>   5
Atom  55H    basis set group =>   5
Atom  56H    basis set group =>   5
Atom  57H    basis set group =>   5
Atom  58H    basis set group =>   5
Atom  59H    basis set group =>   5
Atom  60H    basis set group =>   5
Atom  61H    basis set group =>   5
Atom  62H    basis set group =>   5
Atom  63H    basis set group =>   5
Atom  64H    basis set group =>   5
Atom  65H    basis set group =>   5
Atom  66H    basis set group =>   5
Atom  67H    basis set group =>   5
Atom  68H    basis set group =>   5
Atom  69H    basis set group =>   5
----------------------------------
AUXILIARY/JK BASIS SET INFORMATION
----------------------------------
There are 5 groups of distinct atoms

 Group   1 Type C   : 14s10p6d2f1g contracted to 10s8p5d1f1g pattern {5111111111/31111111/21111/2/1}
 Group   2 Type P   : 16s12p10d4f1g contracted to 13s11p9d4f1g pattern {4111111111111/21111111111/211111111/1111/1}
 Group   3 Type Rh  : 13s12p10d9f6g3h2i contracted to 11s10p9d8f6g3h2i pattern {31111111111/3111111111/211111111/21111111/111111/111/11}
 Group   4 Type Cl  : 16s12p10d4f1g contracted to 13s11p9d4f1g pattern {4111111111111/21111111111/211111111/1111/1}
 Group   5 Type H   : 4s2p2d contracted to 2s2p2d pattern {31/11/11}

Atom   0C    basis set group =>   1
Atom   1C    basis set group =>   1
Atom   2C    basis set group =>   1
Atom   3C    basis set group =>   1
Atom   4C    basis set group =>   1
Atom   5C    basis set group =>   1
Atom   6P    basis set group =>   2
Atom   7C    basis set group =>   1
Atom   8C    basis set group =>   1
Atom   9C    basis set group =>   1
Atom  10C    basis set group =>   1
Atom  11C    basis set group =>   1
Atom  12C    basis set group =>   1
Atom  13Rh   basis set group =>   3
Atom  14Cl   basis set group =>   4
Atom  15P    basis set group =>   2
Atom  16C    basis set group =>   1
Atom  17C    basis set group =>   1
Atom  18C    basis set group =>   1
Atom  19C    basis set group =>   1
Atom  20C    basis set group =>   1
Atom  21C    basis set group =>   1
Atom  22C    basis set group =>   1
Atom  23C    basis set group =>   1
Atom  24C    basis set group =>   1
Atom  25C    basis set group =>   1
Atom  26C    basis set group =>   1
Atom  27C    basis set group =>   1
Atom  28C    basis set group =>   1
Atom  29C    basis set group =>   1
Atom  30C    basis set group =>   1
Atom  31C    basis set group =>   1
Atom  32C    basis set group =>   1
Atom  33C    basis set group =>   1
Atom  34C    basis set group =>   1
Atom  35C    basis set group =>   1
Atom  36C    basis set group =>   1
Atom  37C    basis set group =>   1
Atom  38C    basis set group =>   1
Atom  39C    basis set group =>   1
Atom  40H    basis set group =>   5
Atom  41H    basis set group =>   5
Atom  42H    basis set group =>   5
Atom  43H    basis set group =>   5
Atom  44H    basis set group =>   5
Atom  45H    basis set group =>   5
Atom  46H    basis set group =>   5
Atom  47H    basis set group =>   5
Atom  48H    basis set group =>   5
Atom  49H    basis set group =>   5
Atom  50H    basis set group =>   5
Atom  51H    basis set group =>   5
Atom  52H    basis set group =>   5
Atom  53H    basis set group =>   5
Atom  54H    basis set group =>   5
Atom  55H    basis set group =>   5
Atom  56H    basis set group =>   5
Atom  57H    basis set group =>   5
Atom  58H    basis set group =>   5
Atom  59H    basis set group =>   5
Atom  60H    basis set group =>   5
Atom  61H    basis set group =>   5
Atom  62H    basis set group =>   5
Atom  63H    basis set group =>   5
Atom  64H    basis set group =>   5
Atom  65H    basis set group =>   5
Atom  66H    basis set group =>   5
Atom  67H    basis set group =>   5
Atom  68H    basis set group =>   5
Atom  69H    basis set group =>   5
-------------------------
ECP PARAMETER INFORMATION
-------------------------

 Group 1, Type Rh ECP Def2-ECP (replacing 28 core electrons, lmax=3)

Atom  13Rh   ECP group =>   1


Checking for AutoStart:
The File: MOR10_ed09.gbw exists
Trying to determine its content:
     ... Fine, the file contains calculation information
     ... Fine, the calculation information was read
     ... Fine, the file contains a basis set
     ... Fine, the basis set was read
     ... Fine, the file contains ECP parameters
     ... Fine, ECP parameters were read
     ... Fine, the file contains a geometry
     ... Fine, the geometry was read
     ... Fine, the file contains a set of orbitals
     ... Fine, the orbitals can be read
     => possible old guess file was deleted
     => GBW file was renamed to GES file
     => GES file is set as startup file
     => Guess is set to MORead
     ... now leaving AutoStart



           ************************************************************
           *        Program running with 28 parallel MPI-processes    *
           *              working on a common directory               *
           ************************************************************
------------------------------------------------------------------------------
                           ORCA GTO INTEGRAL CALCULATION
------------------------------------------------------------------------------

                         BASIS SET STATISTICS AND STARTUP INFO

 # of primitive gaussian shells          ... 1173
 # of primitive gaussian functions       ... 2733
 # of contracted shells                  ...  743
 # of contracted basis functions         ... 2045
 Highest angular momentum                ...    4
 Maximum contraction depth               ...    7
 Integral package used                   ... LIBINT
 Integral threshhold            Thresh   ...  1.000e-10
 Primitive cut-off              TCut     ...  1.000e-11


------------------------------ INTEGRAL EVALUATION ----------------------------


 * One electron integrals 

   ECP integrals                         ... done
 Pre-screening matrix                    ... done
 Shell pair data                         ... done (   0.090 sec)



           ************************************************************
           *        Program running with 28 parallel MPI-processes    *
           *              working on a common directory               *
           ************************************************************
-------------------------------------------------------------------------------
                                 ORCA SCF
-------------------------------------------------------------------------------

------------
SCF SETTINGS
------------
Hamiltonian:
 Density Functional     Method          .... DFT(GTOs)
 Exchange Functional    Exchange        .... WB97M-V
 Correlation Functional Correlation     .... WB97M-V
 Gradients option       PostSCFGGA      .... off
 Hybrid DFT is turned on
   Fraction HF Exchange ScalHFX         ....  0.150000
   Scaling of DF-GGA-X  ScalDFX         ....  0.000000
   Scaling of DF-GGA-C  ScalDFC         ....  1.000000
   Scaling of DF-LDA-C  ScalLDAC        ....  1.000000
   Perturbative correction              ....  0.000000
   Density functional embedding theory  .... OFF
 Long-range corrected/Screened/Range-Separated Hybrid DFT is turned on
   Amount of maximum screened exact exchange              ....  0.850000
   Range separation parameter mu (erf(mu*r12)/r12)        ....  0.300000
   NL short-range parameter             ....  6.000000
   NL long-range parameter              ....  0.010000


General Settings:
 Integral files         IntName         .... MOR10_ed09
 Hartree-Fock type      HFTyp           .... RHF
 Total Charge           Charge          ....    0
 Multiplicity           Mult            ....    1
 Number of Electrons    NEL             ....  310
 Basis Dimension        Dim             .... 2045
 Nuclear Repulsion      ENuc            ....   5608.1046348967 Eh

Convergence Acceleration:
 DIIS                   CNVDIIS         .... on
   Start iteration      DIISMaxIt       ....    12
   Startup error        DIISStart       ....  0.200000
   # of expansion vecs  DIISMaxEq       ....     5
   Bias factor          DIISBfac        ....   1.050
   Max. coefficient     DIISMaxC        ....  10.000
 Newton-Raphson         CNVNR           .... off
 SOSCF                  CNVSOSCF        .... off
 Level Shifting         CNVShift        .... on
   Level shift para.    LevelShift      ....    0.2500
   Turn off err/grad.   ShiftErr        ....    0.0010
 Zerner damping         CNVZerner       .... off
 Static damping         CNVDamp         .... on
   Fraction old density DampFac         ....    0.7000
   Max. Damping (<1)    DampMax         ....    0.9800
   Min. Damping (>=0)   DampMin         ....    0.0000
   Turn off err/grad.   DampErr         ....    0.1000
 Fernandez-Rico         CNVRico         .... off

SCF Procedure:
 Maximum # iterations   MaxIter         ....   125
 SCF integral mode      SCFMode         .... Direct
   Integral package                     .... LIBINT
 Reset frequency        DirectResetFreq ....    20
 Integral Threshold     Thresh          ....  1.000e-10 Eh
 Primitive CutOff       TCut            ....  1.000e-11 Eh

Convergence Tolerance:
 Convergence Check Mode ConvCheckMode   .... Total+1el-Energy
 Convergence forced     ConvForced      .... 0
 Energy Change          TolE            ....  1.000e-06 Eh
 1-El. energy change                    ....  1.000e-03 Eh
 DIIS Error             TolErr          ....  1.000e-06


Diagonalization of the overlap matrix:
Smallest eigenvalue                        ... 1.739e-07
Time for diagonalization                   ...    0.793 sec
Threshold for overlap eigenvalues          ... 1.000e-08
Number of eigenvalues below threshold      ... 0
Time for construction of square roots      ...    0.687 sec
Total time needed                          ...    1.493 sec

---------------------
INITIAL GUESS: MOREAD
---------------------
Guess MOs are being read from file: MOR10_ed09.ges
Input Geometry matches current geometry (good)
Input basis set matches current basis set (good)
MOs were renormalized
MOs were reorthogonalized (Cholesky)
                      ------------------
                      INITIAL GUESS DONE (   4.1 sec)
                      ------------------
-------------------
DFT GRID GENERATION
-------------------

General Integration Accuracy     IntAcc      ...  4.670
Radial Grid Type                 RadialGrid  ... Gauss-Chebyshev
Angular Grid (max. acc.)         AngularGrid ... Lebedev-302
Angular grid pruning method      GridPruning ... 3 (G Style)
Weight generation scheme         WeightScheme... Becke
Basis function cutoff            BFCut       ...    1.0000e-10
Integration weight cutoff        WCut        ...    1.0000e-14
Grids for H and He will be reduced by one unit

# of grid points (after initial pruning)     ... 356480 (   0.0 sec)
# of grid points (after weights+screening)   ... 299731 (   0.5 sec)
nearest neighbour list constructed           ...    0.0 sec
Grid point re-assignment to atoms done       ...    0.1 sec
Grid point division into batches done        ...    1.2 sec
Reduced shell lists constructed in    2.1 sec

Total number of grid points                  ...   299731
Total number of batches                      ...     4720
Average number of points per batch           ...       63
Average number of grid points per atom       ...     4282
Average number of shells per batch           ...   380.75 (51.25%)
Average number of basis functions per batch  ...  1022.02 (49.98%)
Average number of large shells per batch     ...   261.42 (68.66%)
Average number of large basis fcns per batch ...   701.43 (68.63%)
Maximum spatial batch extension              ...   4.04,  4.46,  6.00 au
Average spatial batch extension              ...   0.04,  0.04,  0.04 au

Time for grid setup =    2.881 sec

--------------
SCF ITERATIONS
--------------
ITER       Energy         Delta-E        Max-DP      RMS-DP      [F,P]     Damp
               ***  Starting incremental Fock matrix formation  ***
  0 -5348405.3941240376   0.0000000000003852.24890271 18.03278296  0.1482884 0.7000
  1 -5348829.4682190381-424.0740950005133671.64160379 17.31139099  0.1423529 0.7000
                               ***Turning on DIIS***
  2 -5349291.3193033636-461.8510843254633499.03362819 16.60948315  0.1367327 0.7000
  3 -5349766.5996444626-475.2803410990163983.90491390 19.11304277  0.1313610 0.7000
  4 -5350258.7567321239-492.1570876613266324.01781518 30.94798462  0.1250691 0.7000
  5 -5350672.5523014646-413.79556934069811282.50720910 57.17897579  0.1142370 0.7000
  6 -5350106.8223171281 565.72998433653333489.64703857 172.54154558  0.0967315 0.0000
  7 -5356086.6786210453-5979.85630391724413936.54637897 79.72760509  0.0336633 0.0000
  8 -5356403.1131146196-316.434493574314639.38346986  3.05535489  0.0128343 0.0000
  9 -5356406.3374964884  -3.224381868728518.13685198  2.36806928  0.0077736 0.0000
 10 -5356407.3676324356  -1.030135947280176.86421475  1.02021589  0.0010195 0.0000
 11 -5356407.4412456611  -0.07361322548273.31018261  0.35347946  0.0005745 0.0000
 12 -5356407.4472233299  -0.00597766879918.88499348  0.08762014  0.0000912 0.0000
 13 -5356407.4499000208  -0.002676690929 5.28848568  0.01825345  0.0000396 0.0000
 14 -5356407.4400030114   0.009897009470 2.33876080  0.01172629  0.0000187 0.0000
 15 -5356407.4456487047  -0.005645693280 1.10137275  0.00618865  0.0000079 0.0000
 16 -5356407.4268381409   0.018810563721 0.80730736  0.00483143  0.0000055 0.0000
 17 -5356407.4249625858   0.001875555143 0.34094853  0.00223652  0.0000027 0.0000
                            ***DIIS convergence achieved***

               *****************************************************
               *                     SUCCESS                       *
               *           SCF CONVERGED AFTER  18 CYCLES          *
               *****************************************************


Setting up the DFT-NL grid :

General Integration Accuracy     IntAcc      ...  4.340
Radial Grid Type                 RadialGrid  ... Gauss-Chebyshev
Angular Grid (max. acc.)         AngularGrid ... Lebedev-110
Angular grid pruning method      GridPruning ... 3 (G Style)
Weight generation scheme         WeightScheme... Becke
Basis function cutoff            BFCut       ...    1.0000e-10
Integration weight cutoff        WCut        ...    1.0000e-14
Grids for H and He will be reduced by one unit

# of grid points (after initial pruning)     ...  92172 (   0.0 sec)
# of grid points (after weights+screening)   ...  79641 (   0.1 sec)
nearest neighbour list constructed           ...    0.0 sec
Grid point re-assignment to atoms done       ...    0.0 sec
Grid point division into batches done        ...    0.1 sec
Reduced shell lists constructed in    0.3 sec

Total number of grid points                  ...    79641
Total number of batches                      ...     1282
Average number of points per batch           ...       62
Average number of grid points per atom       ...     1138
Average number of shells per batch           ...   394.43 (53.09%)
Average number of basis functions per batch  ...  1067.83 (52.22%)
Average number of large shells per batch     ...   273.06 (69.23%)
Average number of large basis fcns per batch ...   735.57 (68.88%)
Maximum spatial batch extension              ...   3.32,  3.31,  2.99 au
Average spatial batch extension              ...   0.07,  0.06,  0.06 au

Final grid set up in    0.6 sec

-------------------------------------------------------------------------------
                         DFT-NL dispersion correction                          
-------------------------------------------------------------------------------

SC Energy -5356407.433245162 
NL    Energy 0.563516023 
SC+NL Energy -5356406.869729139 
NL done in    5.8 sec
-------------------------------------------------------------------------------

----------------
TOTAL SCF ENERGY
----------------

Total Energy       :     -5356406.86972914 Eh      -145755240.97859 eV

Components:
Nuclear Repulsion  :         5608.10463490 Eh          152604.28537 eV
Electronic Energy  :     -5362014.97436404 Eh      -145907845.26396 eV
One Electron Energy:        -9710.52624498 Eh         -264236.85267 eV
Two Electron Energy:     -5352304.44811905 Eh      -145643608.41129 eV

Virial components:
Potential Energy   :     -5357870.64088819 Eh      -145795072.21681 eV
Kinetic Energy     :         1463.77115905 Eh           39831.23822 eV
Virial Ratio       :         3660.31985790


DFT components:
N(Alpha)           :      154.922522933198 electrons
N(Beta)            :      154.922522933198 electrons
N(Total)           :      309.845045866397 electrons
E(X)               :      -45.271773874666 Eh       
E(C)               :      -20.025372430864 Eh       
NL Energy, E(C,NL) :        0.563516022675 Eh       
E(XC)              :      -64.733630282855 Eh       
DFET-embed. en.    :        0.000000000000 Eh       

---------------
SCF CONVERGENCE
---------------

  Last Energy change         ...   -8.2826e-03  Tolerance :   1.0000e-06
  Last MAX-Density change    ...    3.2294e-01  Tolerance :   1.0000e-05
  Last RMS-Density change    ...    1.9385e-03  Tolerance :   1.0000e-06
  Last DIIS Error            ...    1.4775e-06  Tolerance :   1.0000e-06

================================================================================
                                        WARNING
Check your MOs and check whether a frozen core calculation is appropriate
MO 0 should be a C  d core orbital but seems to be delocalized with a C  p orbital (63.2% vs. 31.2%)
================================================================================
================================================================================
                                        WARNING
Check your MOs and check whether a frozen core calculation is appropriate
MO 1 should be a C  d core orbital but seems to be delocalized with a C  p orbital (60.5% vs. 34.7%)
================================================================================
================================================================================
                                        WARNING
Check your MOs and check whether a frozen core calculation is appropriate
MO 2 should be a C  d core orbital but seems to be delocalized with a C  p orbital (71.2% vs. 25.4%)
================================================================================
================================================================================
                                        WARNING
Check your MOs and check whether a frozen core calculation is appropriate
MO 3 should be a C  d core orbital but seems to be delocalized with a C  p orbital (54.0% vs. 40.8%)
================================================================================
================================================================================
                                        WARNING
Check your MOs and check whether a frozen core calculation is appropriate
MO 4 should be a C  d core orbital but seems to be delocalized with a C  p orbital (56.6% vs. 37.6%)
================================================================================
================================================================================
                                        WARNING
Check your MOs and check whether a frozen core calculation is appropriate
MO 5 should be a C  d core orbital but seems to be delocalized with a C  p orbital (65.6% vs. 27.8%)
================================================================================
================================================================================
                                        WARNING
Check your MOs and check whether a frozen core calculation is appropriate
MO 6 should be a C  d core orbital but seems to be delocalized with a C  p orbital (54.8% vs. 38.5%)
================================================================================
================================================================================
                                        WARNING
Check your MOs and check whether a frozen core calculation is appropriate
MO 7 should be a C  d core orbital but seems to be delocalized with a C  p orbital (67.3% vs. 20.2%)
================================================================================
================================================================================
                                        WARNING
Check your MOs and check whether a frozen core calculation is appropriate
MO 8 should be a C  d core orbital but seems to be delocalized with a C  s orbital (62.9% vs. 19.4%)
================================================================================
================================================================================
                                        WARNING
Check your MOs and check whether a frozen core calculation is appropriate
MO 9 should be a C  d core orbital but seems to be delocalized with a C  p orbital (61.2% vs. 25.1%)
================================================================================
================================================================================
                                        WARNING
Check your MOs and check whether a frozen core calculation is appropriate
MO 10 should be a C  d core orbital but seems to be delocalized with a C  p orbital (62.9% vs. 25.8%)
================================================================================
================================================================================
                                        WARNING
Check your MOs and check whether a frozen core calculation is appropriate
MO 11 should be a C  d core orbital but seems to be delocalized with a C  p orbital (56.9% vs. 32.4%)
================================================================================
================================================================================
                                        WARNING
Check your MOs and check whether a frozen core calculation is appropriate
MO 12 should be a C  d core orbital but seems to be delocalized with a C  p orbital (62.7% vs. 24.4%)
================================================================================
================================================================================
                                        WARNING
Check your MOs and check whether a frozen core calculation is appropriate
MO 13 should be a C  d core orbital but seems to be delocalized with a C  p orbital (65.6% vs. 22.6%)
================================================================================
================================================================================
                                        WARNING
Check your MOs and check whether a frozen core calculation is appropriate
MO 14 should be a C  d core orbital but seems to be delocalized with a C  p orbital (72.5% vs. 21.1%)
================================================================================
================================================================================
                                        WARNING
Check your MOs and check whether a frozen core calculation is appropriate
MO 15 should be a C  d core orbital but seems to be delocalized with a C  p orbital (59.9% vs. 27.1%)
================================================================================
================================================================================
                                        WARNING
Check your MOs and check whether a frozen core calculation is appropriate
MO 16 should be a C  d core orbital but seems to be delocalized with a C  p orbital (65.3% vs. 19.6%)
================================================================================
================================================================================
                                        WARNING
Check your MOs and check whether a frozen core calculation is appropriate
MO 17 should be a C  d core orbital but seems to be delocalized with a C  p orbital (56.5% vs. 31.0%)
================================================================================
================================================================================
                                        WARNING
Check your MOs and check whether a frozen core calculation is appropriate
MO 18 should be a C  d core orbital but seems to be delocalized with a C  p orbital (47.9% vs. 37.9%)
================================================================================
================================================================================
                                        WARNING
Check your MOs and check whether a frozen core calculation is appropriate
MO 19 should be a C  d core orbital but seems to be delocalized with a C  p orbital (66.7% vs. 17.9%)
================================================================================
================================================================================
                                        WARNING
Check your MOs and check whether a frozen core calculation is appropriate
MO 20 should be a C  d core orbital but seems to be delocalized with a C  p orbital (56.1% vs. 23.2%)
================================================================================
================================================================================
                                        WARNING
Check your MOs and check whether a frozen core calculation is appropriate
MO 21 should be a C  d core orbital but seems to be delocalized with a C  p orbital (64.0% vs. 25.0%)
================================================================================
================================================================================
                                        WARNING
Check your MOs and check whether a frozen core calculation is appropriate
MO 22 should be a C  d core orbital but seems to be delocalized with a C  s orbital (69.3% vs. 12.1%)
================================================================================
================================================================================
                                        WARNING
Check your MOs and check whether a frozen core calculation is appropriate
MO 23 should be a C  d core orbital but seems to be delocalized with a C  p orbital (59.7% vs. 16.8%)
================================================================================
================================================================================
                                        WARNING
Check your MOs and check whether a frozen core calculation is appropriate
MO 24 should be a C  d core orbital but seems to be delocalized with a C  p orbital (62.0% vs. 19.7%)
================================================================================
================================================================================
                                        WARNING
Check your MOs and check whether a frozen core calculation is appropriate
MO 25 should be a C  d core orbital but seems to be delocalized with a C  p orbital (57.3% vs. 15.3%)
================================================================================
================================================================================
                                        WARNING
Check your MOs and check whether a frozen core calculation is appropriate
MO 26 should be a C  d core orbital but seems to be delocalized with a C  s orbital (55.3% vs. 16.0%)
================================================================================
================================================================================
                                        WARNING
Check your MOs and check whether a frozen core calculation is appropriate
MO 27 should be a C  d core orbital but seems to be delocalized with a C  p orbital (62.4% vs. 15.4%)
================================================================================
================================================================================
                                        WARNING
Check your MOs and check whether a frozen core calculation is appropriate
MO 28 should be a C  d core orbital but seems to be delocalized with a C  p orbital (67.8% vs. 15.9%)
================================================================================
================================================================================
                                        WARNING
Check your MOs and check whether a frozen core calculation is appropriate
MO 29 should be a C  d core orbital but seems to be delocalized with a C  p orbital (58.1% vs. 13.5%)
================================================================================
================================================================================
                                        WARNING
Check your MOs and check whether a frozen core calculation is appropriate
MO 30 should be a C  d core orbital but seems to be delocalized with a C  s orbital (49.6% vs. 11.8%)
================================================================================
================================================================================
                                        WARNING
Check your MOs and check whether a frozen core calculation is appropriate
MO 31 should be a C  d core orbital but seems to be delocalized with a C  p orbital (49.4% vs. 16.1%)
================================================================================
================================================================================
                                        WARNING
Check your MOs and check whether a frozen core calculation is appropriate
MO 32 should be a C  d core orbital but seems to be delocalized with a C  p orbital (48.2% vs. 17.1%)
================================================================================
================================================================================
                                        WARNING
Check your MOs and check whether a frozen core calculation is appropriate
MO 33 should be a C  d core orbital but seems to be delocalized with a C  p orbital (55.8% vs. 15.2%)
================================================================================
================================================================================
                                        WARNING
Check your MOs and check whether a frozen core calculation is appropriate
MO 34 should be a C  d core orbital but seems to be delocalized with a C  p orbital (47.8% vs. 16.7%)
================================================================================
================================================================================
                                        WARNING
Check your MOs and check whether a frozen core calculation is appropriate
MO 35 should be a C  d core orbital but seems to be delocalized with a C  s orbital (49.2% vs. 17.6%)
================================================================================
*** Error in `/mnt/storage/software/apps/orca-4.2.0/orca_4_2_0_linux_x86-64_openmpi314/orca_scf_mpi': free(): invalid next size (fast): 0x00000000293c8f20 ***
*** Error in `/mnt/storage/software/apps/orca-4.2.0/orca_4_2_0_linux_x86-64_openmpi314/orca_scf_mpi': free(): invalid next size (fast): 0x000000002388e300 ***
*** Error in `/mnt/storage/software/apps/orca-4.2.0/orca_4_2_0_linux_x86-64_openmpi314/orca_scf_mpi': free(): invalid next size (fast): 0x0000000021ee1b60 ***
*** Error in `/mnt/storage/software/apps/orca-4.2.0/orca_4_2_0_linux_x86-64_openmpi314/orca_scf_mpi': free(): invalid next size (fast): 0x0000000014eb5740 ***
*** Error in `/mnt/storage/software/apps/orca-4.2.0/orca_4_2_0_linux_x86-64_openmpi314/orca_scf_mpi': free(): invalid next size (fast): 0x0000000020f80680 ***
*** Error in `/mnt/storage/software/apps/orca-4.2.0/orca_4_2_0_linux_x86-64_openmpi314/orca_scf_mpi': free(): invalid next size (fast): 0x00000000247be540 ***
*** Error in `/mnt/storage/software/apps/orca-4.2.0/orca_4_2_0_linux_x86-64_openmpi314/orca_scf_mpi': free(): invalid next size (fast): 0x000000000b3c1ec0 ***
[compute405:02795] *** Process received signal ***
[compute405:02795] Signal: Segmentation fault (11)
[compute405:02795] Signal code: Address not mapped (1)
[compute405:02795] Failing at address: 0x18
[compute405:02796] *** Process received signal ***
[compute405:02796] Signal: Segmentation fault (11)
[compute405:02796] Signal code: Address not mapped (1)
[compute405:02796] Failing at address: 0x18
*** Error in `/mnt/storage/software/apps/orca-4.2.0/orca_4_2_0_linux_x86-64_openmpi314/orca_scf_mpi': free(): invalid next size (fast): 0x0000000023f224c0 ***
*** Error in `/mnt/storage/software/apps/orca-4.2.0/orca_4_2_0_linux_x86-64_openmpi314/orca_scf_mpi': free(): invalid next size (fast): 0x000000000b535e20 ***
*** Error in `/mnt/storage/software/apps/orca-4.2.0/orca_4_2_0_linux_x86-64_openmpi314/orca_scf_mpi': free(): invalid next size (fast): 0x000000002bdd1200 ***
*** Error in `/mnt/storage/software/apps/orca-4.2.0/orca_4_2_0_linux_x86-64_openmpi314/orca_scf_mpi': free(): invalid next size (fast): 0x0000000026108a40 ***
*** Error in `/mnt/storage/software/apps/orca-4.2.0/orca_4_2_0_linux_x86-64_openmpi314/orca_scf_mpi': free(): invalid next size (fast): 0x00000000234f8240 ***
*** Error in `/mnt/storage/software/apps/orca-4.2.0/orca_4_2_0_linux_x86-64_openmpi314/orca_scf_mpi': free(): invalid next size (fast): 0x000000001a78f3c0 ***
*** Error in `/mnt/storage/software/apps/orca-4.2.0/orca_4_2_0_linux_x86-64_openmpi314/orca_scf_mpi': free(): invalid next size (fast): 0x000000001ca78d60 ***
*** Error in `/mnt/storage/software/apps/orca-4.2.0/orca_4_2_0_linux_x86-64_openmpi314/orca_scf_mpi': free(): invalid next size (fast): 0x0000000020764520 ***
*** Error in `/mnt/storage/software/apps/orca-4.2.0/orca_4_2_0_linux_x86-64_openmpi314/orca_scf_mpi': free(): invalid next size (fast): 0x0000000015103360 ***
[compute405:02809] *** Process received signal ***
[compute405:02809] Signal: Segmentation fault (11)
[compute405:02809] Signal code: Address not mapped (1)
[compute405:02809] Failing at address: 0x18
*** Error in `/mnt/storage/software/apps/orca-4.2.0/orca_4_2_0_linux_x86-64_openmpi314/orca_scf_mpi': free(): invalid next size (fast): 0x00000000218da7a0 ***
*** Error in `/mnt/storage/software/apps/orca-4.2.0/orca_4_2_0_linux_x86-64_openmpi314/orca_scf_mpi': free(): invalid next size (fast): 0x000000001f1c01e0 ***
*** Error in `/mnt/storage/software/apps/orca-4.2.0/orca_4_2_0_linux_x86-64_openmpi314/orca_scf_mpi': free(): invalid next size (fast): 0x000000000b44d4c0 ***
*** Error in `/mnt/storage/software/apps/orca-4.2.0/orca_4_2_0_linux_x86-64_openmpi314/orca_scf_mpi': free(): invalid next size (fast): 0x0000000022134680 ***
[compute405:02817] *** Process received signal ***
[compute405:02817] Signal: Segmentation fault (11)
[compute405:02817] Signal code: Address not mapped (1)
[compute405:02817] Failing at address: 0x18
[compute405:02818] *** Process received signal ***
[compute405:02818] Signal: Segmentation fault (11)
[compute405:02818] Signal code: Address not mapped (1)
[compute405:02818] Failing at address: 0x18
*** Error in `/mnt/storage/software/apps/orca-4.2.0/orca_4_2_0_linux_x86-64_openmpi314/orca_scf_mpi': free(): invalid next size (fast): 0x000000000af32da0 ***
================================================================================
                                        WARNING
Check your MOs and check whether a frozen core calculation is appropriate
MO 135 should be a Cl s core orbital but seems to be delocalized with a C  d orbital (87.1% vs.  4.9%)
================================================================================
================================================================================
                                        WARNING
Check your MOs and check whether a frozen core calculation is appropriate
MO 143 should be a P  s core orbital but seems to be delocalized with a C  s orbital (88.1% vs. 11.9%)
================================================================================
================================================================================
                                        WARNING
Check your MOs and check whether a frozen core calculation is appropriate
MO 144 should be a P  s core orbital but seems to be delocalized with a C  d orbital (70.2% vs.  9.5%)
================================================================================
================================================================================
                                        WARNING
Number of found core electrons (78) does not match given number of chemical core electrons (102)
================================================================================

================================================================================
MOs in valence range (operator=0) identified as core orbitals.
Correct this by swapping MOs
================================================================================
                                        WARNING
Number of orbitals to swap in and swap out does not match (3, 3, 15)
SKIPPING Reordering!
================================================================================
*** Error in `/mnt/storage/software/apps/orca-4.2.0/orca_4_2_0_linux_x86-64_openmpi314/orca_scf_mpi': free(): invalid next size (fast): 0x000000000be2efc0 ***
*** Error in `/mnt/storage/software/apps/orca-4.2.0/orca_4_2_0_linux_x86-64_openmpi314/orca_scf_mpi': free(): invalid next size (fast): 0x0000000010ed43e0 ***
======= Backtrace: =========
/usr/lib64/libc.so.6(+0x7c503)[0x2ac8165b1503]
======= Backtrace: =========
/usr/lib64/libc.so.6(+0x7c503)[0x2b9147398503]
======= Backtrace: =========
/usr/lib64/libc.so.6(+0x7c503)[0x2ab6b2087503]
/mnt/storage/software/apps/orca-4.2.0/orca_4_2_0_linux_x86-64_openmpi314/orca_scf_mpi[0x787ded]
======= Backtrace: =========
/usr/lib64/libc.so.6(+0x7c503)[0x2afdf8f20503]
/mnt/storage/software/apps/orca-4.2.0/orca_4_2_0_linux_x86-64_openmpi314/orca_scf_mpi[0x787ded]
/mnt/storage/software/apps/orca-4.2.0/orca_4_2_0_linux_x86-64_openmpi314/orca_scf_mpi[0xf19e44]
======= Backtrace: =========
/usr/lib64/libc.so.6(+0x7c503)[0x2b6b557dc503]
/mnt/storage/software/apps/orca-4.2.0/orca_4_2_0_linux_x86-64_openmpi314/orca_scf_mpi[0x787ded]
/mnt/storage/software/apps/orca-4.2.0/orca_4_2_0_linux_x86-64_openmpi314/orca_scf_mpi[0xf19e44]
/mnt/storage/software/apps/orca-4.2.0/orca_4_2_0_linux_x86-64_openmpi314/orca_scf_mpi[0x787ded]
/mnt/storage/software/apps/orca-4.2.0/orca_4_2_0_linux_x86-64_openmpi314/orca_scf_mpi[0xf19e44]
/mnt/storage/software/apps/orca-4.2.0/orca_4_2_0_linux_x86-64_openmpi314/orca_scf_mpi[0x46eae2]
======= Backtrace: =========
/usr/lib64/libc.so.6(+0x7c503)[0x2b69ffa50503]
/mnt/storage/software/apps/orca-4.2.0/orca_4_2_0_linux_x86-64_openmpi314/orca_scf_mpi[0x787ded]
/mnt/storage/software/apps/orca-4.2.0/orca_4_2_0_linux_x86-64_openmpi314/orca_scf_mpi[0xf19e44]
/mnt/storage/software/apps/orca-4.2.0/orca_4_2_0_linux_x86-64_openmpi314/orca_scf_mpi[0x46eae2]
======= Backtrace: =========
/usr/lib64/libc.so.6(+0x7c503)[0x2b634378a503]
/mnt/storage/software/apps/orca-4.2.0/orca_4_2_0_linux_x86-64_openmpi314/orca_scf_mpi[0x787ded]
/mnt/storage/software/apps/orca-4.2.0/orca_4_2_0_linux_x86-64_openmpi314/orca_scf_mpi[0xf19e44]
/mnt/storage/software/apps/orca-4.2.0/orca_4_2_0_linux_x86-64_openmpi314/orca_scf_mpi[0x787ded]
/mnt/storage/software/apps/orca-4.2.0/orca_4_2_0_linux_x86-64_openmpi314/orca_scf_mpi[0xf19e44]
/mnt/storage/software/apps/orca-4.2.0/orca_4_2_0_linux_x86-64_openmpi314/orca_scf_mpi[0x46eae2]
/mnt/storage/software/apps/orca-4.2.0/orca_4_2_0_linux_x86-64_openmpi314/orca_scf_mpi[0x4704f1]
/mnt/storage/software/apps/orca-4.2.0/orca_4_2_0_linux_x86-64_openmpi314/orca_scf_mpi[0x46eae2]
/mnt/storage/software/apps/orca-4.2.0/orca_4_2_0_linux_x86-64_openmpi314/orca_scf_mpi[0x4704f1]
/mnt/storage/software/apps/orca-4.2.0/orca_4_2_0_linux_x86-64_openmpi314/orca_scf_mpi[0x4772cc]
/usr/lib64/libc.so.6(__libc_start_main+0xf5)[0x2b634372fb35]
/mnt/storage/software/apps/orca-4.2.0/orca_4_2_0_linux_x86-64_openmpi314/orca_scf_mpi[0x462839]
======= Memory map: ========
/mnt/storage/software/apps/orca-4.2.0/orca_4_2_0_linux_x86-64_openmpi314/orca_scf_mpi[0xf19e44]
/mnt/storage/software/apps/orca-4.2.0/orca_4_2_0_linux_x86-64_openmpi314/orca_scf_mpi[0x46eae2]
/mnt/storage/software/apps/orca-4.2.0/orca_4_2_0_linux_x86-64_openmpi314/orca_scf_mpi[0x4704f1]
/mnt/storage/software/apps/orca-4.2.0/orca_4_2_0_linux_x86-64_openmpi314/orca_scf_mpi[0x4772cc]
/usr/lib64/libc.so.6(__libc_start_main+0xf5)[0x2ab6b202cb35]
/mnt/storage/software/apps/orca-4.2.0/orca_4_2_0_linux_x86-64_openmpi314/orca_scf_mpi[0x462839]
======= Memory map: ========
/mnt/storage/software/apps/orca-4.2.0/orca_4_2_0_linux_x86-64_openmpi314/orca_scf_mpi[0x46eae2]
/mnt/storage/software/apps/orca-4.2.0/orca_4_2_0_linux_x86-64_openmpi314/orca_scf_mpi[0x4704f1]
/mnt/storage/software/apps/orca-4.2.0/orca_4_2_0_linux_x86-64_openmpi314/orca_scf_mpi[0x4772cc]
/usr/lib64/libc.so.6(__libc_start_main+0xf5)[0x2afdf8ec5b35]
/mnt/storage/software/apps/orca-4.2.0/orca_4_2_0_linux_x86-64_openmpi314/orca_scf_mpi[0x462839]
======= Memory map: ========
======= Backtrace: =========
/usr/lib64/libc.so.6(+0x7c503)[0x2b71a1896503]
/mnt/storage/software/apps/orca-4.2.0/orca_4_2_0_linux_x86-64_openmpi314/orca_scf_mpi[0x787ded]
/mnt/storage/software/apps/orca-4.2.0/orca_4_2_0_linux_x86-64_openmpi314/orca_scf_mpi[0xf19e44]
/mnt/storage/software/apps/orca-4.2.0/orca_4_2_0_linux_x86-64_openmpi314/orca_scf_mpi[0x46eae2]
/mnt/storage/software/apps/orca-4.2.0/orca_4_2_0_linux_x86-64_openmpi314/orca_scf_mpi[0x46eae2]
/mnt/storage/software/apps/orca-4.2.0/orca_4_2_0_linux_x86-64_openmpi314/orca_scf_mpi[0x4704f1]
/mnt/storage/software/apps/orca-4.2.0/orca_4_2_0_linux_x86-64_openmpi314/orca_scf_mpi[0x4772cc]
/usr/lib64/libc.so.6(__libc_start_main+0xf5)[0x2b6b55781b35]
/mnt/storage/software/apps/orca-4.2.0/orca_4_2_0_linux_x86-64_openmpi314/orca_scf_mpi[0x462839]
======= Memory map: ========
/mnt/storage/software/apps/orca-4.2.0/orca_4_2_0_linux_x86-64_openmpi314/orca_scf_mpi[0x4704f1]
/mnt/storage/software/apps/orca-4.2.0/orca_4_2_0_linux_x86-64_openmpi314/orca_scf_mpi[0x4772cc]
/usr/lib64/libc.so.6(__libc_start_main+0xf5)[0x2ac816556b35]
/mnt/storage/software/apps/orca-4.2.0/orca_4_2_0_linux_x86-64_openmpi314/orca_scf_mpi[0x462839]
======= Memory map: ========
/mnt/storage/software/apps/orca-4.2.0/orca_4_2_0_linux_x86-64_openmpi314/orca_scf_mpi[0x4704f1]
/mnt/storage/software/apps/orca-4.2.0/orca_4_2_0_linux_x86-64_openmpi314/orca_scf_mpi[0x4772cc]
/usr/lib64/libc.so.6(__libc_start_main+0xf5)[0x2b69ff9f5b35]
/mnt/storage/software/apps/orca-4.2.0/orca_4_2_0_linux_x86-64_openmpi314/orca_scf_mpi[0x462839]
======= Memory map: ========
/mnt/storage/software/apps/orca-4.2.0/orca_4_2_0_linux_x86-64_openmpi314/orca_scf_mpi[0x4772cc]
/usr/lib64/libc.so.6(__libc_start_main+0xf5)[0x2b914733db35]
/mnt/storage/software/apps/orca-4.2.0/orca_4_2_0_linux_x86-64_openmpi314/orca_scf_mpi[0x462839]
======= Memory map: ========
00400000-09755000 r-xp 00000000 00:2c 4876171                            /mnt/storage/software/apps/orca-4.2.0/orca_4_2_0_linux_x86-64_openmpi314/orca_scf_mpi
09955000-099bb000 rw-p 09355000 00:2c 4876171                            /mnt/storage/software/apps/orca-4.2.0/orca_4_2_0_linux_x86-64_openmpi314/orca_scf_mpi
099bb000-09bc8000 rw-p 00000000 00:00 0 
0aa51000-0ab96000 rw-p 00000000 00:00 0                                  [heap]
0ab96000-0ab9b000 rw-p 00000000 00:00 0                                  [heap]
0ab9b000-0ac15000 rw-p 00000000 00:00 0                                  [heap]
0ac15000-0ac25000 rw-p 00000000 00:00 0                                  [heap]
0ac25000-31b88000 rw-p 00000000 00:00 0                                  [heap]
2b69ff4b0000-2b69ff4d0000 r-xp 00000000 00:23 41010                      /usr/lib64/ld-2.17.so
2b69ff4d0000-2b69ff4d2000 rw-p 00000000 00:00 0 
2b69ff4d2000-2b69ff5b4000 r-xp 00000000 00:2c 7015918                    /mnt/storage/easybuild/software/OpenMPI/3.0.0-GC00400000-09755000 r-xp 00000000 00:2c 4876171                            /mnt/storage/software/apps/orca-4.2.0/orca_4_2_0_linux_x86-64_openmpi314/orca_scf_mpi
09955000-099bb000 rw-p 09355000 00:2c 4876171                            /mnt/storage/software/apps/orca-4.2.0/orca_4_2_0_linux_x86-64_openmpi314/orca_scf_mpi
099bb000-09bc8000 rw-p 00000000 00:00 0 
09c77000-09dbc000 rw-p 00000000 00:00 0                                  [heap]
09dbc000-09dc1000 rw-p 00000000 00:00 0                                  [heap]
09dc1000-09e3b000 rw-p 00000000 00:00 0                                  [heap]
09e3b000-09e4b000 rw-p 00000000 00:00 0                                  [heap]
09e4b000-2a5b0000 rw-p 00000000 00:00 0                                  [heap]
2b63431ea000-2b634320a000 r-xp 00000000 00:23 41010                      /usr/lib64/ld-2.17.so
2b634320a000-2b634320c000 rw-p 00000000 00:00 0 
2b634320c000-2b63432ee000 r-xp 00000000 00:2c 7015918                    /mnt/storage/easybuild/software/OpenMPI/3.0.0-GCC-7.2.0-2.29/lib/libmpi.so.40.0.0
2b63432ee000-2b63432ef000 ---p 000e2000 00:2c 7015918                    /mnt/storage/easybuild/software/OpenMPI/3.0.0-GCC-7.2.0-2.29/lib/libmpi.so.40.0.0
2b63432ef000-2b63432f0000 r--p 000e2000 00:2c 7015918                    /mnt/storage/easybuild/software/OpenMPI/3.0.0-GCC-7.2.0-2.29/lib/libmpi.so.40.0.0
2b63432f0000-2b6343301000 rw-p 000e3000 00:2c 7015918                    /mnt/storage/easybuild/software/OpenMPI/3.0.0-GCC-7.2.0-2.29/lib/libmpi.so.40.0.0
2b6343301000-2b6343312000 rw-p 00000000 00:00 0 
2b6343312000-2b6343314000 r-xp 00000000 00:2c 7566672                    /mnt/storage/easybuild/software/OpenMPI/3.0.0-GCC-7.2.0-2.29/lib/openmpi/mca_schizo_slurm.so
2b6343314000-2b6343315000 r--p 00001000 00:2c 7566672                    /mnt/storage/easybuild/software/OpenMPI/3.0.0-GCC-7.2.0-2.29/lib/openmpi/mca_schizo_slurm.so
2b6343315000-2b6343316000 rw-p 00002000 00:2c 7566672                    /mnt/storage/easybuild/software/OpenMPI/3.0.0-GCC-7.2.0-2.29/lib/openmp00400000-09755000 r-xp 00000000 00:2c 4876171                            /mnt/storage/software/apps/orca-4.2.0/orca_4_2_0_linux_x86-64_openmpi314/orca_scf_mpi
09955000-099bb000 rw-p 09355000 00:2c 4876171                            /mnt/storage/software/apps/orca-4.2.0/orca_4_2_0_linux_x86-64_openmpi314/orca_scf_mpi
099bb000-09bc8000 rw-p 00000000 00:00 0 
0ad05000-0ae4a000 rw-p 00000000 00:00 0                                  [heap]
0ae4a000-0ae4f000 rw-p 00000000 00:00 0                                  [heap]
0ae4f000-0aec9000 rw-p 00000000 00:00 0                                  [heap]
0aec9000-0aed9000 rw-p 00000000 00:00 0                                  [heap]
0aed9000-2d7e6000 rw-p 00000000 00:00 0                                  [heap]
2ab6b1ae7000-2ab6b1b07000 r-xp 00000000 00:23 41010                      /usr/lib64/ld-2.17.so
2ab6b1b07000-2ab6b1b09000 rw-p 00000000 00:00 0 
2ab6b1b09000-2ab6b1beb000 r-xp 00000000 00:2c 7015918                    /mnt/storage/easybuild/software/OpenMPI/3.0.0-GCC-7.2.0-2.29/lib/libmpi.so.40.0.0
2ab6b1beb000-2ab6b1bec000 ---p 000e2000 00:2c 7015918                    /mnt/storage/easybuild/software/OpenMPI/3.0.0-GCC-7.2.0-2.29/lib/libmpi.so.40.0.0
2ab6b1bec000-2ab6b1bed000 r--p 000e2000 00:2c 7015918                    /mnt/storage/easybuild/software/OpenMPI/3.0.0-GCC-7.2.0-2.29/lib/libmpi.so.40.0.0
2ab6b1bed000-2ab6b1bfe000 rw-p 000e3000 00:2c 7015918                    /mnt/storage/easybuild/software/OpenMPI/3.0.0-GCC-7.2.0-2.29/lib/libmpi.so.40.0.0
2ab6b1bfe000-2ab6b1c0f000 rw-p 00000000 00:00 0 
2ab6b1c0f000-2ab6b1c11000 r-xp 00000000 00:2c 7566672                    /mnt/storage/easybuild/software/OpenMPI/3.0.0-GCC-7.2.0-2.29/lib/openmpi/mca_schizo_slurm.so
2ab6b1c11000-2ab6b1c12000 r--p 00001000 00:2c 7566672                    /mnt/storage/easybuild/software/OpenMPI/3.0.0-GCC-7.2.0-2.29/lib/openmpi/mca_schizo_slurm.so
[...]
[compute405:02804] [10] /usr/lib64/libc.so.6(__libc_start_main+0xf5)[0x2adc2c654b35]
[compute405:02804] [11] /mnt/storage/software/apps/orca-4.2.0/orca_4_2_0_linux_x86-64_openmpi314/orca_scf_mpi[0x462839]
[compute405:02804] *** End of error message ***
dev/infiniband/uverbs0
2b3503f09000-2b3503fca000 rw-s 92e6d000 00:05 11422                      /dev/infiniband/uverbs0
2b3503fca000-2b3503ffb000 rw-s 930e4000 00:05 11422                      /dev/infiniband/uverbs0
2b3503ffb000-2b3503ffd000 r-xp 00000000 00:2c 7816238                    /mnt/storage/easybuild/software/OpenMPI/3.0.0-GCC-7.2.0-2.29/lib/openmpi/mca_patcher_overwrite.so
2b3503ffd000-2b3503ffe000 r--p 00001000 00:2c 7816238                    /mnt/storage/easybuild/software/OpenMPI/3.0.0-GCC-7.2.0-2.29/lib/openmpi/mca_patcher_overwrite.so
2b3503ffe000-2b3503fff000 rw-p 00002000 00:2c 7816238                    /mnt/storage/easybuild/software/OpenMPI/3.0.0-GCC-7.2.0-2.29/lib/openmpi/mca_patcher_overwrite.so
2b3504000000-2b3504021000 rw-p 00000000 00:00 0 
2b3504021000-2b3508000000 ---p 00000000 00:00 0 
2b3508000000-2b3508021000 rw-p 00000000 00:00 0 
2b3508021000-2b350c000000 ---p 00000000 00:00 0 
2b350c000000-2b350c064000 r-xp 00000000 00:23 44464                      /usr/lib64/libnl-route-3.so.200.23.0
2b350c064000-2b350c263000 ---p 00064000 00:23 44464                      /usr/lib64/libnl-route-3.so.200.23.0
2b350c263000-2b350c266000 r--p 00063000 00:23 44464                      /usr/lib64/libnl-route-3.so.200.23.0
2b350c266000-2b350c26b000 rw-p 00066000 00:23 44464                      /usr/lib64/libnl-route-3.so.200.23.0
2b350c26b000-2b350c26d000 rw-p 00000000 00:00 0 
2b350c26d000-2b350c28b000 r-xp 00000000 00:23 44522                      /usr/lib64/libnl-3.so.200.23.0
2b350c28b000-2b350c48b000 ---p 0001e000 00:23 44522                      /usr/lib64/libnl-3.so.200.23.0
2b350c48b000-2b350c48d000 r--p 0001e000 00:23 44522                      /usr/lib64/libnl-3.so.200.23.0
2b350c48d000-2b350c48e000 rw-p 00020000 00:23 44522                      /usr/lib64/libnl-3.so.200.23.0
2b350c48e000-2b350c492000 r-xp 00000000 00:23 44816                      /usr/lib64/libhfi1verbs-rdmav2.so
2b350c492000-2b350c691000 ---p 00004000 00:23 44816                      /usr/lib64/libhfi1verbs-rdmav2.so
2b350c691000-2b350c692000 r--p 00003000 00:23 44816                      /usr/lib64/libhfi1verbs-rdmav2.so
2b350c692000-2b350c693000 rw-p 00004000 00:23 44816                      /usr/lib64/libhfi1verbs-rdmav2.so
2b350c693000-2b350c699000 r-xp 00000000 00:23 44822                      /usr/lib64/libi40iw-rdmav2.so
2b350c699000-2b350c899000 ---p 00006000 00:23 44822                      /usr/lib64/libi40iw-rdmav2.so
2b350c899000-2b350c89a000 r--p 00006000 00:23 44822                      /usr/lib64/libi40iw-rdmav2.so
2b350c89a000-2b350c89b000 rw-p 00007000 00:23 44822                      /usr/lib64/libi40iw-rdmav2.so
2b350c89b000-2b350c89c000 rw-p 00000000 00:00 0 
2b350c89c000-2b350cc9c000 rw-p 00000000 00:00 0 
2b350cc9c000-2b350ccca000 rw-p 00000000 00:00 0 
2b350ccca000-2b350cccd000 r-xp 00000000 00:2c 7816235                    /mnt/storage/easybuild/software/OpenMPI/3.0.0-GCC-7.2.0-2.29/lib/openmpi/mca_mpool_hugepage.so
2b350cccd000-2b350ccce000 ---p 00003000 00:2c 7816235                    /mnt/storage/easybuild/software/OpenMPI/3.0.0-GCC-7.2.0-2.29/lib/openmpi/mca_mpool_hugepage.so
2b350ccce000-2b350cccf000 r--p 00003000 00:2c 7816235                    /mnt/storage/easybuild/software/OpenMPI/3.0.0-GCC-7.2.0-2.29/lib/openmpi/mca_mpool_hugepage.so
2b350cccf000-2b350ccd0000 rw-p 00004000 00:2c 7816235                    /mnt/storage/easybuild/software/OpenMPI/3.0.0-GCC-7.2.0-2.29/lib/openmpi/mca_mpool_hugepage.so
2b350ccd0000-2b350ccd4000 r-xp 00000000 00:2c 1952179                    /mnt/storage/easybuild/software/OpenMPI/3.0.0-GCC-7.2.0-2.29/lib/openmpi/mca_bml_r2.so
2b350ccd4000-2b350ccd5000 ---p 00004000 00:2c 1952179                    /mnt/storage/easybuild/software/OpenMPI/3.0.0-GCC-7.2.0-2.29/lib/openmpi/mca_bml_r2.so
2b350ccd5000-2b350ccd6000 r--p 00004000 00:2c 1952179                    /mnt/storage/easybuild/software/OpenMPI/3.0.0-GCC-7.2.0-2.29/lib/openmpi/mca_bml_r2.so
2b350ccd6000-2b350ccd7000 rw-p 00005000 00:2c 1952179                    /mnt/storage/easybuild/software/OpenMPI/3.0.0-GCC-7.2.0-2.29/lib/openmpi/mca_bml_r2.so
2b350ccd7000-2b350ccdf000 r-xp 00000000 00:2c 7816222                    /mnt/storage/easybuild/software/OpenMPI/3.0.0-GCC-7.2.0-2.29/lib/openmpi/mca_btl_vader.so
2b350ccdf000-2b350cce0000 r--p 00007000 00:2c 7816222                    /mnt/storage/easybuild/software/OpenMPI/3.0.0-GCC-7.2.0-2.29/lib/openmpi/mca_btl_vader.so
2b350cce0000-2b350cce2000 rw-p 00008000 00:2c 7816222                    /mnt/storage/easybuild/software/OpenMPI/3.0.0-GCC-7.2.0-2.29/lib/openmpi/mca_btl_vader.so
2b350cce2000-2b350ccf1000 r-xp 00000000 00:2c 7816218                    /mnt/storage/easybuild/software/OpenMPI/3.0.0-GCC-7.2.0-2.29/lib/openmpi/mca_btl_tcp.so
2b350ccf1000-2b350ccf2000 r--p 0000e000 00:2c 7816218                    /mnt/storage/easybuild/software/OpenMPI/3.0.0-GCC-7.2.0-2.29/lib/openmpi/mca_btl_tcp.so
2b350ccf2000-2b350ccf4000 rw-p 0000f000 00:2c 7816218                    /mnt/storage/easybuild/software/OpenMPI/3.0.0-GCC-7.2.0-2.29/lib/openmpi/mca_btl_tcp.so
2b350ccf4000-2b350ccf7000 r-xp 00000000 00:2c 7816204                    /mnt/storage/easybuild/software/OpenMPI/3.0.0-GCC-7.2.0-2.29/lib/openmpi/mca_btl_self.so
2b350ccf7000-2b350ccf8000 ---p 00003000 00:2c 7816204                    /mnt/storage/easybuild/software/OpenMPI/3.0.0-GCC-7.2.0-2.29/lib/openmpi/mca_btl_self.so
2b350ccf8000-2b350ccf9000 r--p 00003000 00:2c 7816204                    /mnt/storage/easybuild/software/OpenMPI/3.0.0-GCC-7.2.0-2.29/lib/openmpi/mca_btl_self.so
2b350ccf9000-2b350ccfa000 rw-p 00004000 00:2c 7816204                    /mnt/storage/easybuild/software/OpenMPI/3.0.0-GCC-7.2.0-2.29/lib/openmpi/mca_btl_self.so
2b350ccfa000-2b350cd27000 r-xp 00000000 00:2c 7816211                    /mnt/storage/easybuild/software/OpenMPI/3.0.0-GCC-7.2.0-2.29/lib/openmpi/mca_btl_openib.so
2b350cd27000-2b350cd28000 ---p 0002d000 00:2c 7816211                    /mnt/storage/easybuild/software/OpenMPI/3.0.0-GCC-7.2.0-2.29/lib/openmpi/mca_btl_openib.so
2b350cd28000-2b350cd29000 r--p 0002d000 00:2c 7816211                    /mnt/storage/easybuild/software/OpenMPI/3.0.0-GCC-7.2.0-2.29/lib/openmpi/mca_btl_openib.so
2b350cd29000-2b350cd2b000 rw-p 0002e000 00:2c 7816211                    /mnt/storage/easybuild/software/OpenMPI/3.0.0-GCC-7.2.0-2.29/lib/openmpi/mca_btl_openib.so
2b350cd2b000-2b350d12c000 rw-s 00000000 00:23 190619966                  /tmp/ompi.compute405.375339/pid.2786/1/19/vader_segment.compute405.19
2b350d12c000-2b350d2fb000 rw-p 00000000 00:00 0 
2b350d2fb000-2b350d302000 rw-s 93326000 00:05 11422                      /dev/infiniband/uverbs0
2b350d302000-2b350d309000 rw-s 9332d000 00:05 11422                      /dev/infiniband/uverbs0
2b350d309000-2b350d30e000 rw-s 93392000 00:05 11422                      /dev/infiniband/uverbs0
2b350d30e000-2b350d330000 rw-p 00000000 00:00 0 
2b350d33f000-2b350d348000 r-xp 00000000 00:2c 1952245                    /mnt/storage/easybuild/software/OpenMPI/3.0.0-GCC-7.2.0-2.29/lib/openmpi/mca_pml_cm.so
2b350d348000-2b350d349000 r--p 00008000 00:2c 1952245                    /mnt/storage/easybuild/software/OpenMPI/3.0.0-GCC-7.2.0-2.29/lib/openmpi/mca_pml_cm.so
2b350d349000-2b350d34a000 rw-p 00009000 00:2c 1952245                    /mnt/storage/easybuild/software/OpenMPI/3.0.0-GCC-7.2.0-2.29/lib/openmpi/mca_pml_cm.so
2b350d34a000-2b350d34f000 r-xp 00000000 00:2c 1952233                    /mnt/storage/easybuild/software/OpenMPI/3.0.0-GCC-7.2.0-2.29/lib/openmpi/mca_mtl_psm2.so
2b350d34f000-2b350d350000 r--p 00004000 00:2c 1952233                    /mnt/storage/easybuild/software/OpenMPI/3.0.0-GCC-7.2.0-2.29/lib/openmpi/mca_mtl_psm2.so
2b350d350000-2b350d351000 rw-p 00005000 00:2c 1952233                    /mnt/storage/easybuild/software/OpenMPI/3.0.0-GCC-7.2.0-2.29/lib/openmpi/mca_mtl_psm2.so
2b350d351000-2b350d353000 r-xp 00000000 00:2c 1952191                    /mnt/storage/easybuild/software/OpenMPI/3.0.0-GCC-7.2.0-2.29/lib/openmpi/mca_coll_self.so
2b350d353000-2b350d354000 ---p 00002000 00:2c 1952191                    /mnt/storage/easybuild/software/OpenMPI/3.0.0-GCC-7.2.0-2.29/lib/openmpi/mca_coll_self.so
2b350d354000-2b350d355000 r--p 00002000 00:2c 1952191                    /mnt/storage/easybuild/software/OpenMPI/3.0.0-GCC-7.2.0-2.29/lib/openmpi/mca_coll_self.so
2b350d355000-2b350d356000 rw-p 00003000 00:2c 1952191                    /mnt/storage/easybuild/software/OpenMPI/3.0.0-GCC-7.2.0-2.29/lib/openmpi/mca_coll_self.so
2b350d356000-2b350d373000 r-xp 00000000 00:2c 1952188                    /mnt/storage/easybuild/software/OpenMPI/3.0.0-GCC-7.2.0-2.29/lib/openmpi/mca_coll_libnbc.so
2b350d373000-2b350d374000 r--p 0001c000 00:2c 1952188                    /mnt/storage/easybuild/software/OpenMPI/3.0.0-GCC-7.2.0-2.29/lib/openmpi/mca_coll_libnbc.so
2b350d374000-2b350d375000 rw-p 0001d000 00:2c 1952188                    /mnt/storage/easybuild/software/OpenMPI/3.0.0-GCC-7.2.0-2.29/lib/openmpi/mca_coll_libnbc.so
2b350d375000-2b350d379000 r-xp 00000000 00:2c 1952185                    /mnt/storage/easybuild/software/OpenMPI/3.0.0-GCC-7.2.0-2.29/lib/openmpi/mca_coll_inter.so
2b350d379000-2b350d37a000 r--p 00003000 00:2c 1952185                    /mnt/storage/easybuild/software/OpenMPI/3.0.0-GCC-7.2.0-2.29/lib/openmpi/mca_coll_inter.so
2b350d37a000-2b350d37b000 rw-p 00004000 00:2c 1952185                    /mnt/storage/easybuild/software/OpenMPI/3.0.0-GCC-7.2.0-2.29/lib/openmpi/mca_coll_inter.so
2b350d37b000-2b350d37e000 r-xp 00000000 00:2c 1952199                    /mnt/storage/easybuild/software/OpenMPI/3.0.0-GCC-7.2.0-2.29/lib/openmpi/mca_coll_sync.so
2b350d37e000-2b350d37f000 ---p 00003000 00:2c 1952199                    /mnt/storage/easybuild/software/OpenMPI/3.0.0-GCC-7.2.0-2.29/lib/openmpi/mca_coll_sync.so
2b350d37f000-2b350d380000 r--p 00003000 00:2c 1952199                    /mnt/storage/easybuild/software/OpenMPI/3.0.0-GCC-7.2.0-2.29/lib/openmpi/mca_coll_sync.so
2b350d380000-2b350d381000 rw-p 00004000 00:2c 1952199                    /mnt/storage/easybuild/software/OpenMPI/3.0.0-GCC-7.2.0-2.29/lib/openmpi/mca_coll_sync.so
2b350d381000-2b350d38f000 r-xp 00000000 00:2c 1952202                    /mnt/storage/easybuild/software/OpenMPI/3.0.0-GCC-7.2.0-2.29/lib/openmpi/mca_coll_tuned.so
2b350d38f000-2b350d390000 r--p 0000d000 00:2c 1952202                    /mnt/storage/easybuild/software/OpenMPI/3.0.0-GCC-7.2.0-2.29/lib/openmpi/mca_coll_tuned.so
2b350d390000-2b350d391000 rw-p 0000e000 00:2c 1952202                    /mnt/storage/easybuild/software/OpenMPI/3.0.0-GCC-7.2.0-2.29/lib/openmpi/mca_coll_tuned.so
2b350d391000-2b350d39e000 r-xp 00000000 00:2c 1952182                    /mnt/storage/easybuild/software/OpenMPI/3.0.0-GCC-7.2.0-2.29/lib/openmpi/mca_coll_basic.so
2b350d39e000-2b350d39f000 r--p 0000c000 00:2c 1952182                    /mnt/storage/easybuild/software/OpenMPI/3.0.0-GCC-7.2.0-2.29/lib/openmpi/mca_coll_basic.so
2b350d39f000-2b350d3a0000 rw-p 0000d000 00:2c 1952182                    /mnt/storage/easybuild/software/OpenMPI/3.0.0-GCC-7.2.0-2.29/lib/openmpi/mca_coll_basic.so
2b350d3a0000-2b350d3a6000 r-xp 00000000 00:2c 1952195                    /mnt/storage/easybuild/software/OpenMPI/3.0.0-GCC-7.2.0-2.29/lib/openmpi/mca_coll_sm.so
2b350d3a6000-2b350d3a7000 r--p 00005000 00:2c 1952195                    /mnt/storage/easybuild/software/OpenMPI/3.0.0-GCC-7.2.0-2.29/lib/openmpi/mca_coll_sm.so
2b350d3a7000-2b350d3a8000 rw-p 00006000 00:2c 1952195                    /mnt/storage/easybuild/software/OpenMPI/3.0.0-GCC-7.2.0-2.29/lib/openmpi/mca_coll_sm.so
2b350d3a8000-2b350d3aa000 r-xp 00000000 00:2c 7816186                    /mnt/storage/easybuild/software/OpenMPI/3.0.0-GCC-7.2.0-2.29/lib/libmca_common_sm.so.40.0.0
2b350d3aa000-2b350d3ab000 ---p 00002000 00:2c 7816186                    /mnt/storage/easybuild/software/OpenMPI/3.0.0-GCC-7.2.0-2.29/lib/libmca_common_sm.so.40.0.0
2b350d3ab000-2b350d3ac000 r--p 00002000 00:2c 7816186                    /mnt/storage/easybuild/software/OpenMPI/3.0.0-GCC-7.2.0-2.29/lib/libmca_common_sm.so.40.0.0
2b350d3ac000-2b350d3ad000 rw-p 00003000 00:2c 7816186                    /mnt/storage/easybuild/software/OpenMPI/3.0.0-GCC-7.2.0-2.29/lib/libmca_common_sm.so.40.0.0
2b350d3ad000-2b350d3ce000 r-xp 00000000 00:2c 1952239                    /mnt/storage/easybuild/software/OpenMPI/3.0.0-GCC-7.2.0-2.29/lib/openmpi/mca_osc_pt2pt.so
2b350d3ce000-2b350d3cf000 r--p 00020000 00:2c 1952239                    /mnt/storage/easybuild/software/OpenMPI/3.0.0-GCC-7.2.0-2.29/lib/openmpi/mca_osc_pt2pt.so
2b350d3cf000-2b350d3d1000 rw-p 00021000 00:2c 1952239                    /mnt/storage/easybuild/software/OpenMPI/3.0.0-GCC-7.2.0-2.29/lib/openmpi/mca_osc_pt2pt.so
2b350d3d1000-2b350d3fd000 r-xp 00000000 00:2c 1952242                    /mnt/storage/easybuild/software/OpenMPI/3.0.0-GCC-7.2.0-2.29/lib/openmpi/mca_osc_rdma.so
2b350d3fd000-2b350d3fe000 r--p 0002b000 00:2c 1952242                    /mnt/storage/easybuild/software/OpenMPI/3.0.0-GCC-7.2.0-2.29/lib/openmpi/mca_osc_rdma.so
2b350d3fe000-2b350d3ff000 rw-p 0002c000 00:2c 1952242                    /mnt/storage/easybuild/software/OpenMPI/3.0.0-GCC-7.2.0-2.29/lib/openmpi/mca_osc_rdma.so
2b350d3ff000-2b350d405000 r-xp 00000000 00:2c 1952236                    /mnt/storage/easybuild/software/OpenMPI/3.0.0-GCC-7.2.0-2.29/lib/openmpi/mca_osc_sm.so
2b350d405000-2b350d406000 r--p 00005000 00:2c 1952236                    /mnt/storage/easybuild/software/OpenMPI/3.0.0-GCC-7.2.0-2.29/lib/openmpi/mca_osc_sm.so
2b350d406000-2b350d408000 rw-p 00006000 00:2c 1952236                    /mnt/storage/easybuild/software/OpenMPI/3.0.0-GCC-7.2.0-2.29/lib/openmpi/mca_osc_sm.so
2b350d408000-2b350d49a000 rw-p 00000000 00:00 0 
2b350d49a000-2b350d8bd000 rw-s 00000000 00:12 190625028                  /dev/shm/psm2_shm.37533900000013beb602600
2b350d8bd000-2b350dce0000 rw-s 00000000 00:12 190621184                  /dev/shm/psm2_shm.37533900000000beb600000
2b350dce0000-2b350e103000 rw-s 00000000 00:12 190640467                  /dev/shm/psm2_shm.37533900000001beb600200
2b350e103000-2b350e526000 rw-s 00000000 00:12 190637258                  /dev/shm/psm2_shm.37533900000002beb600400
2b350e526000-2b350e949000 rw-s 00000000 00:12 190656763                  /dev/shm/psm2_shm.37533900000003beb600600
2b350e949000-2b350ed6c000 rw-s 00000000 00:12 190668020                  /dev/shm/psm2_shm.37533900000004beb600800
2b350ed6c000-2b350f18f000 rw-s 00000000 00:12 190619199                  /dev/shm/psm2_shm.37533900000005beb600a00
2b350f18f000-2b350f5b2000 rw-s 00000000 00:12 190618502                  /dev/shm/psm2_shm.37533900000006beb600c00
2b350f5b2000-2b350f9d5000 rw-s 00000000 00:12 190605136                  /dev/shm/psm2_shm.37533900000007beb600e00
2b350f9d5000-2b350fdf8000 rw-s 00000000 00:12 190629174                  /dev/shm/psm2_shm.37533900000008beb601000
2b350fdf8000-2b351021b000 rw-s 00000000 00:12 190663104                  /dev/shm/psm2_shm.37533900000009beb601200
2b351021b000-2b351063e000 rw-s 00000000 00:12 190656166                  /dev/shm/psm2_shm.3753390000000abeb601400
2b351063e000-2b3510a61000 rw-s 00000000 00:12 190669837                  /dev/shm/psm2_shm.3753390000000bbeb601600
2b3510a61000-2b3510e84000 rw-s 00000000 00:12 190617233                  /dev/shm/psm2_shm.3753390000000cbeb601800
2b3510e84000-2b35112a7000 rw-s 00000000 00:12 190641244                  /dev/shm/psm2_shm.3753390000000dbeb601a00
2b35112a7000-2b35116ca000 rw-s 00000000 00:12 190612195                  /dev/shm/psm2_shm.3753390000000ebeb601c00
2b35116ca000-2b3511aed000 rw-s 00000000 00:12 190627976                  /dev/shm/psm2_shm.3753390000000fbeb601e00
2b3511aed000-2b3511f10000 rw-s 00000000 00:12 190621185                  /dev/shm/psm2_shm.37533900000010beb602000
2b3511f10000-2b3512333000 rw-s 00000000 00:12 190641243                  /dev/shm/psm2_shm.37533900000011beb602200
2b3512333000-2b3512756000 rw-s 00000000 00:12 190665812                  /dev/shm/psm2_shm.37533900000012beb602400
2b3512756000-2b3512b79000 rw-s 00000000 00:12 190649511                  /dev/shm/psm2_shm.37533900000014beb602800
2b3512b79000-2b3512f9c000 rw-s 00000000 00:12 190603014                  /dev/shm/psm2_shm.37533900000015beb602a00
2b3512f9c000-2b35133bf000 rw-s 00000000 00:12 190614134                  /dev/shm/psm2_shm.37533900000016beb602c00
2b35133bf000-2b35137e2000 rw-s 00000000 00:12 190669836                  /dev/shm/psm2_shm.37533900000017beb602e00
2b35137e2000-2b3513c05000 rw-s 00000000 00:12 190657590                  /dev/shm/psm2_shm.37533900000018beb603000
2b3513c05000-2b3514028000 rw-s 00000000 00:12 190598097                  /dev/shm/psm2_shm.37533900000019beb603200
2b3514028000-2b351444b000 rw-s 00000000 00:12 190627615                  /dev/shm/psm2_shm.3753390000001abeb603400
2b351444b000-2b351486e000 rw-s 00000000 00:12 190626206                  /dev/shm/psm2_shm.3753390000001bbeb603600
2b351486e000-2b3515865000 rw-p 00000000 00:00 0 
2b351685c000-2b351a833000 rw-p 00000000 00:00 0 
2b351f504000-2b35201ca000 rw-p 00000000 00:00 0 
2b3524000000-2b3524021000 rw-p 00000000 00:00 0 
2b3524021000-2b3528000000 ---p 00000000 00:00 0 
7ffc859c4000-7ffc85acb000 rw-p 00000000 00:00 0                          [stack]
7ffc85be8000-7ffc85bea000 r-xp 00000000 00:00 0                          [vdso]
ffffffffff600000-ffffffffff601000 r-xp 00000000 00:00 0                  [vsyscall]
[compute405:02810] *** Process received signal ***
[compute405:02810] Signal: Aborted (6)
[compute405:02810] Signal code:  (-6)
[compute405:02810] [ 0] /usr/lib64/libc.so.6(+0x35250)[0x2b3501209250]
[compute405:02810] [ 1] /usr/lib64/libc.so.6(gsignal+0x37)[0x2b35012091d7]
[compute405:02810] [ 2] /usr/lib64/libc.so.6(abort+0x148)[0x2b350120a8c8]
[compute405:02810] [ 3] /usr/lib64/libc.so.6(+0x74f07)[0x2b3501248f07]
[compute405:02810] [ 4] /usr/lib64/libc.so.6(+0x7c503)[0x2b3501250503]
[compute405:02810] [ 5] /mnt/storage/software/apps/orca-4.2.0/orca_4_2_0_linux_x86-64_openmpi314/orca_scf_mpi[0x787ded]
[compute405:02810] [ 6] /mnt/storage/software/apps/orca-4.2.0/orca_4_2_0_linux_x86-64_openmpi314/orca_scf_mpi[0xf19e44]
[compute405:02810] [ 7] /mnt/storage/software/apps/orca-4.2.0/orca_4_2_0_linux_x86-64_openmpi314/orca_scf_mpi[0x46eae2]
[compute405:02810] [ 8] /mnt/storage/software/apps/orca-4.2.0/orca_4_2_0_linux_x86-64_openmpi314/orca_scf_mpi[0x4704f1]
[compute405:02810] [ 9] /mnt/storage/software/apps/orca-4.2.0/orca_4_2_0_linux_x86-64_openmpi314/orca_scf_mpi[0x4772cc]
[compute405:02810] [10] /usr/lib64/libc.so.6(__libc_start_main+0xf5)[0x2b35011f5b35]
[compute405:02810] [11] /mnt/storage/software/apps/orca-4.2.0/orca_4_2_0_linux_x86-64_openmpi314/orca_scf_mpi[0x462839]
[compute405:02810] *** End of error message ***
-------------------------------------------------------
Primary job  terminated normally, but 1 process returned
a non-zero exit code. Per user-direction, the job has been aborted.
-------------------------------------------------------
--------------------------------------------------------------------------
mpirun noticed that process rank 24 with PID 2815 on node compute405 exited on signal 6 (Aborted).
--------------------------------------------------------------------------

ORCA finished by error termination in SCF
Calling Command: mpirun -np 28  -machinefile MOR10_ed09.nodes /mnt/storage/software/apps/orca-4.2.0/orca_4_2_0_linux_x86-64_openmpi314/orca_scf_mpi MOR10_ed09.gbw b MOR10_ed09 
[file orca_tools/qcmsg.cpp, line 458]: 
  .... aborting the run

[file orca_tools/qcmsg.cpp, line 458]: 
  .... aborting the run

