
                                 *****************
                                 * O   R   C   A *
                                 *****************

           --- An Ab Initio, DFT and Semiempirical electronic structure package ---

                  #######################################################
                  #                        -***-                        #
                  #          Department of theory and spectroscopy      #
                  #               Directorship: Frank Neese             #
                  #        Max Planck Institute fuer Kohlenforschung    #
                  #                Kaiser Wilhelm Platz 1               #
                  #                 D-45470 Muelheim/Ruhr               #
                  #                      Germany                        #
                  #                                                     #
                  #                  All rights reserved                #
                  #                        -***-                        #
                  #######################################################


                         Program Version 4.2.0 -  RELEASE  -


 With contributions from (in alphabetic order):
   Daniel Aravena         : Magnetic Suceptibility
   Michael Atanasov       : Ab Initio Ligand Field Theory (pilot matlab implementation)
   Alexander A. Auer      : GIAO ZORA, VPT2
   Ute Becker             : Parallelization
   Giovanni Bistoni       : ED, misc. LED, open-shell LED, HFLED
   Martin Brehm           : Molecular dynamics
   Dmytro Bykov           : SCF Hessian
   Vijay G. Chilkuri      : MRCI spin determinant printing, contributions to CSF-ICE
   Dipayan Datta          : RHF DLPNO-CCSD density
   Achintya Kumar Dutta   : EOM-CC, STEOM-CC
   Dmitry Ganyushin       : Spin-Orbit,Spin-Spin,Magnetic field MRCI
   Miquel Garcia          : C-PCM Hessian, Gaussian charge scheme
   Yang Guo               : DLPNO-NEVPT2, CIM, IAO-localization
   Andreas Hansen         : Spin unrestricted coupled pair/coupled cluster methods
   Benjamin Helmich-Paris : CASSCF linear response (MC-RPA)
   Lee Huntington         : MR-EOM, pCC
   Robert Izsak           : Overlap fitted RIJCOSX, COSX-SCS-MP3, EOM
   Christian Kollmar      : KDIIS, OOCD, Brueckner-CCSD(T), CCSD density
   Simone Kossmann        : Meta GGA functionals, TD-DFT gradient, OOMP2, MP2 Hessian
   Martin Krupicka        : AUTO-CI
   Lucas Lang             : DCDCAS
   Dagmar Lenk            : GEPOL surface, SMD
   Dimitrios Liakos       : Extrapolation schemes; Compound Job, initial MDCI parallelization
   Dimitrios Manganas     : Further ROCIS development; embedding schemes
   Dimitrios Pantazis     : SARC Basis sets
   Taras Petrenko         : DFT Hessian,TD-DFT gradient, ASA, ECA, R-Raman, ABS, FL, XAS/XES, NRVS
   Peter Pinski           : DLPNO-MP2, DLPNO-MP2 Gradient
   Christoph Reimann      : Effective Core Potentials
   Marius Retegan         : Local ZFS, SOC
   Christoph Riplinger    : Optimizer, TS searches, QM/MM, DLPNO-CCSD(T), (RO)-DLPNO pert. Triples
   Tobias Risthaus        : Range-separated hybrids, TD-DFT gradient, RPA, STAB
   Michael Roemelt        : Original ROCIS implementation
   Masaaki Saitow         : Open-shell DLPNO-CCSD energy and density
   Barbara Sandhoefer     : DKH picture change effects
   Avijit Sen             : IP-ROCIS
   Kantharuban Sivalingam : CASSCF convergence, NEVPT2, FIC-MRCI
   Bernardo de Souza      : ESD, SOC TD-DFT
   Georgi Stoychev        : AutoAux, RI-MP2 NMR
   Willem Van den Heuvel  : Paramagnetic NMR
   Boris Wezisla          : Elementary symmetry handling
   Frank Wennmohs         : Technical directorship


 We gratefully acknowledge several colleagues who have allowed us to
 interface, adapt or use parts of their codes:
   Stefan Grimme, W. Hujo, H. Kruse,             : VdW corrections, initial TS optimization,
                  C. Bannwarth                     DFT functionals, gCP, sTDA/sTD-DF
   Ed Valeev, F. Pavosevic, A. Kumar             : LibInt (2-el integral package), F12 methods
   Garnet Chan, S. Sharma, J. Yang, R. Olivares  : DMRG
   Ulf Ekstrom                                   : XCFun DFT Library
   Mihaly Kallay                                 : mrcc  (arbitrary order and MRCC methods)
   Andreas Klamt, Michael Diedenhofen            : otool_cosmo (COSMO solvation model)
   Jiri Pittner, Ondrej Demel                    : Mk-CCSD
   Frank Weinhold                                : gennbo (NPA and NBO analysis)
   Christopher J. Cramer and Donald G. Truhlar   : smd solvation model
   Lars Goerigk                                  : TD-DFT with DH, B97 family of functionals
   V. Asgeirsson, H. Jonsson                     : NEB implementation
   FAccTs GmbH                                   : IRC, NEB, NEB-TS, Multilevel, MM, QM/MM, CI optimization
   S Lehtola, MJT Oliveira, MAL Marques          : LibXC Library


 Your calculation uses the libint2 library for the computation of 2-el integrals
 For citations please refer to: http://libint.valeyev.net

 Your ORCA version has been built with support for libXC version: 4.2.3
 For citations please refer to: https://tddft.org/programs/libxc/

 This ORCA versions uses:
   CBLAS   interface :  Fast vector & matrix operations
   LAPACKE interface :  Fast linear algebra routines
   SCALAPACK package :  Parallel linear algebra routines


Your calculation utilizes the DFT-NL dispersion correction.
Cite in your paper:
Vydrov, O. A.; Van Voorhis, T. J. Chem. Phys. 2010, 133, 244103
Hujo, W.; Grimme, S. J. Chem. Theory Comput. 2011, 7, 3866 
   

----- Orbital basis set information -----
Your calculation utilizes the basis: def2-TZVPPD
   F. Weigend and R. Ahlrichs, Phys. Chem. Chem. Phys. 7, 3297 (2005).
   D. Rappoport and F. Furche, J. Chem. Phys. 133 134105 (2010).

----- AuxJK basis set information -----
Your calculation utilizes the auxiliary basis: def2/JK
   H-Ba, Hf-Rn: F. Weigend, J. Comput. Chem. 29, 167 (2008).

cite the ECPs for Ru [Def2-ECP] as follows:
Ce-Yb(ecp-28): M. Dolg, H. Stoll, H.Preuss, J. Chem. Phys., 1989, 90, 1730-1734.
Y-Cd(ecp-28), Hf-Hg(ecp-46): D. Andrae,U. Haeussermann, M. Dolg, H. Stoll, H. Preuss, Theor. Chim. Acta, 1990, 77, 123-141.
In-Sb(ecp-28), Tl-Bi(ecp-46): B. Metz, H. Stoll, M. Dolg, J. Chem. Phys., 2000, 113, 2563-2569.
Te-Xe(ecp-28), Po-Rn(ecp-46): K. A. Peterson, D. Figgen, E. Goll, H. Stoll, M. Dolg, J. Chem. Phys., 2003, 119, 11113-11123.
Rb(ecp-28), Cs(ecp-46): T. Leininger, A. Nicklass, W. Kuechle, H. Stoll, M. Dolg, A. Bergner, Chem. Phys. Lett., 1996, 255, 274-280.
Sr(ecp-28), Ba(ecp-46): M. Kaupp, P. V. Schleyer, H. Stoll and H. Preuss, J. Chem. Phys., 1991, 94, 1360-1366.
La(ecp-46): M. Dolg, H. Stoll, A. Savin, H. Preuss, Theor. Chim. Acta, 1989, 75, 173-194.
Lu(ecp-28): X. Cao, M. Dolg, J. Chem. Phys., 2001, 115, 7348-7355.

ECP parameters for Ru [Def2-ECP] have been obtained from:
TURBOMOLE (7.0.2)

================================================================================
                                        WARNINGS
                       Please study these warnings very carefully!
================================================================================


INFO   : the flag for use of LIBINT has been found!

================================================================================
                                       INPUT FILE
================================================================================
NAME = MOR13_ed24.in
|  1> #
|  2> # MOR13_ed24 wB97M-V/Def2-TZVPPD
|  3> #
|  4> ! wb97m-v def2-tzvppd def2/jk grid4 nofinalgrid
|  5> 
|  6> *xyz 0 1
|  7> Ru       0.947158   -0.829727   -0.745491 
|  8> Cl       0.759536   -0.029843   -2.889353 
|  9> Cl       0.924249   -2.813196    0.406526 
| 10> P       -0.892858    0.059346    0.070519 
| 11> C        2.105770    0.298407    0.120511 
| 12> C       -1.060848    0.304387    1.904454 
| 13> C       -0.839571   -1.004781    2.681683 
| 14> C       -1.204393   -0.821649    4.161076 
| 15> C       -0.398097    0.318884    4.794081 
| 16> C       -0.569062    1.619286    3.999752 
| 17> C       -0.203235    1.422010    2.520494 
| 18> C       -1.361193    1.675223   -0.723442 
| 19> C       -0.190670    2.668218   -0.863157 
| 20> C       -0.617010    3.874515   -1.709852 
| 21> C       -1.846047    4.572418   -1.115292 
| 22> C       -3.005112    3.584426   -0.940399 
| 23> C       -2.585621    2.369196   -0.098214 
| 24> C       -2.266825   -1.149912   -0.318948 
| 25> C       -3.572387   -1.071522    0.495585 
| 26> C       -4.464103   -2.278800    0.161919 
| 27> C       -4.771803   -2.353480   -1.338652 
| 28> C       -3.481398   -2.368379   -2.166970 
| 29> C       -2.587234   -1.168835   -1.825450 
| 30> H        1.784946    1.202955    0.645761 
| 31> H       -2.115821    0.600966    2.014947 
| 32> H        0.212402   -1.294098    2.586311 
| 33> H       -1.418447   -1.824644    2.245913 
| 34> H       -1.028300   -1.758851    4.701667 
| 35> H       -2.278352   -0.600113    4.247046 
| 36> H        0.665500    0.042496    4.804792 
| 37> H       -0.699682    0.468438    5.837587 
| 38> H        0.050942    2.415093    4.429614 
| 39> H       -1.613622    1.955784    4.068877 
| 40> H       -0.334942    2.362910    1.978268 
| 41> H        0.854749    1.145201    2.447640 
| 42> H       -1.618911    1.357234   -1.743817 
| 43> H        0.662106    2.166051   -1.325328 
| 44> H        0.125060    3.019280    0.127484 
| 45> H       -0.846735    3.527698   -2.726710 
| 46> H        0.219033    4.578695   -1.795316 
| 47> H       -2.156025    5.410629   -1.750528 
| 48> H       -1.583038    4.996180   -0.135073 
| 49> H       -3.336384    3.234608   -1.928191 
| 50> H       -3.864727    4.078543   -0.471441 
| 51> H       -2.338056    2.702879    0.918040 
| 52> H       -3.425897    1.674720   -0.010060 
| 53> H       -1.782812   -2.105972   -0.070582 
| 54> H       -4.113822   -0.149509    0.251918 
| 55> H       -3.369403   -1.053503    1.570362 
| 56> H       -5.393534   -2.221008    0.741223 
| 57> H       -3.947864   -3.196972    0.475160 
| 58> H       -5.374229   -1.479434   -1.625752 
| 59> H       -5.376744   -3.241409   -1.557196 
| 60> H       -3.714322   -2.363052   -3.238224 
| 61> H       -2.925851   -3.294401   -1.964642 
| 62> H       -1.666731   -1.193589   -2.417765 
| 63> H       -3.111760   -0.241279   -2.093787 
| 64> C        3.546496    0.126586    0.028364 
| 65> C        4.389877    1.228237    0.286046 
| 66> C        5.770146    1.113346    0.161104 
| 67> C        6.339467   -0.106460   -0.212258 
| 68> C        5.519417   -1.212931   -0.453677 
| 69> C        4.139965   -1.102236   -0.332827 
| 70> H        3.943201    2.177101    0.573360 
| 71> H        6.405205    1.972855    0.357301 
| 72> H        5.961339   -2.166857   -0.726887 
| 73> H        3.508028   -1.975261   -0.480581 
| 74> H        7.417884   -0.197821   -0.305099 
| 75> *
| 76> 
| 77> %maxcore 5000
| 78> 
| 79> %pal
| 80> nprocs = 24
| 81> end
| 82> 
| 83> 
| 84>                          ****END OF INPUT****
================================================================================

                       ****************************
                       * Single Point Calculation *
                       ****************************

---------------------------------
CARTESIAN COORDINATES (ANGSTROEM)
---------------------------------
  Ru     0.947158   -0.829727   -0.745491
  Cl     0.759536   -0.029843   -2.889353
  Cl     0.924249   -2.813196    0.406526
  P     -0.892858    0.059346    0.070519
  C      2.105770    0.298407    0.120511
  C     -1.060848    0.304387    1.904454
  C     -0.839571   -1.004781    2.681683
  C     -1.204393   -0.821649    4.161076
  C     -0.398097    0.318884    4.794081
  C     -0.569062    1.619286    3.999752
  C     -0.203235    1.422010    2.520494
  C     -1.361193    1.675223   -0.723442
  C     -0.190670    2.668218   -0.863157
  C     -0.617010    3.874515   -1.709852
  C     -1.846047    4.572418   -1.115292
  C     -3.005112    3.584426   -0.940399
  C     -2.585621    2.369196   -0.098214
  C     -2.266825   -1.149912   -0.318948
  C     -3.572387   -1.071522    0.495585
  C     -4.464103   -2.278800    0.161919
  C     -4.771803   -2.353480   -1.338652
  C     -3.481398   -2.368379   -2.166970
  C     -2.587234   -1.168835   -1.825450
  H      1.784946    1.202955    0.645761
  H     -2.115821    0.600966    2.014947
  H      0.212402   -1.294098    2.586311
  H     -1.418447   -1.824644    2.245913
  H     -1.028300   -1.758851    4.701667
  H     -2.278352   -0.600113    4.247046
  H      0.665500    0.042496    4.804792
  H     -0.699682    0.468438    5.837587
  H      0.050942    2.415093    4.429614
  H     -1.613622    1.955784    4.068877
  H     -0.334942    2.362910    1.978268
  H      0.854749    1.145201    2.447640
  H     -1.618911    1.357234   -1.743817
  H      0.662106    2.166051   -1.325328
  H      0.125060    3.019280    0.127484
  H     -0.846735    3.527698   -2.726710
  H      0.219033    4.578695   -1.795316
  H     -2.156025    5.410629   -1.750528
  H     -1.583038    4.996180   -0.135073
  H     -3.336384    3.234608   -1.928191
  H     -3.864727    4.078543   -0.471441
  H     -2.338056    2.702879    0.918040
  H     -3.425897    1.674720   -0.010060
  H     -1.782812   -2.105972   -0.070582
  H     -4.113822   -0.149509    0.251918
  H     -3.369403   -1.053503    1.570362
  H     -5.393534   -2.221008    0.741223
  H     -3.947864   -3.196972    0.475160
  H     -5.374229   -1.479434   -1.625752
  H     -5.376744   -3.241409   -1.557196
  H     -3.714322   -2.363052   -3.238224
  H     -2.925851   -3.294401   -1.964642
  H     -1.666731   -1.193589   -2.417765
  H     -3.111760   -0.241279   -2.093787
  C      3.546496    0.126586    0.028364
  C      4.389877    1.228237    0.286046
  C      5.770146    1.113346    0.161104
  C      6.339467   -0.106460   -0.212258
  C      5.519417   -1.212931   -0.453677
  C      4.139965   -1.102236   -0.332827
  H      3.943201    2.177101    0.573360
  H      6.405205    1.972855    0.357301
  H      5.961339   -2.166857   -0.726887
  H      3.508028   -1.975261   -0.480581
  H      7.417884   -0.197821   -0.305099

----------------------------
CARTESIAN COORDINATES (A.U.)
----------------------------
  NO LB      ZA    FRAG     MASS         X           Y           Z
   0 Ru   16.0000*   0   101.070    1.789869   -1.567957   -1.408774
   1 Cl   17.0000    0    35.453    1.435315   -0.056395   -5.460086
   2 Cl   17.0000    0    35.453    1.746577   -5.316170    0.768223
   3 P    15.0000    0    30.974   -1.687257    0.112148    0.133262
   4 C     6.0000    0    12.011    3.979329    0.563908    0.227733
   5 C     6.0000    0    12.011   -2.004712    0.575208    3.598896
   6 C     6.0000    0    12.011   -1.586559   -1.898761    5.067646
   7 C     6.0000    0    12.011   -2.275973   -1.552692    7.863294
   8 C     6.0000    0    12.011   -0.752294    0.602603    9.059500
   9 C     6.0000    0    12.011   -1.075371    3.060007    7.558436
  10 C     6.0000    0    12.011   -0.384058    2.687209    4.763043
  11 C     6.0000    0    12.011   -2.572282    3.165713   -1.367107
  12 C     6.0000    0    12.011   -0.360314    5.042201   -1.631130
  13 C     6.0000    0    12.011   -1.165980    7.321772   -3.231152
  14 C     6.0000    0    12.011   -3.488523    8.640618   -2.107596
  15 C     6.0000    0    12.011   -5.678839    6.773583   -1.777097
  16 C     6.0000    0    12.011   -4.886116    4.477132   -0.185598
  17 C     6.0000    0    12.011   -4.283678   -2.173019   -0.602724
  18 C     6.0000    0    12.011   -6.750833   -2.024883    0.936520
  19 C     6.0000    0    12.011   -8.435932   -4.306308    0.305983
  20 C     6.0000    0    12.011   -9.017401   -4.447433   -2.529686
  21 C     6.0000    0    12.011   -6.578889   -4.475588   -4.094980
  22 C     6.0000    0    12.011   -4.889164   -2.208778   -3.449601
  23 H     1.0000    0     1.008    3.373059    2.273256    1.220311
  24 H     1.0000    0     1.008   -3.998322    1.135661    3.807698
  25 H     1.0000    0     1.008    0.401382   -2.445491    4.887419
  26 H     1.0000    0     1.008   -2.680476   -3.448077    4.244160
  27 H     1.0000    0     1.008   -1.943205   -3.323747    8.884863
  28 H     1.0000    0     1.008   -4.305461   -1.134049    8.025754
  29 H     1.0000    0     1.008    1.257613    0.080306    9.079741
  30 H     1.0000    0     1.008   -1.322207    0.885220   11.031441
  31 H     1.0000    0     1.008    0.096266    4.563864    8.370757
  32 H     1.0000    0     1.008   -3.049304    3.695896    7.689063
  33 H     1.0000    0     1.008   -0.632949    4.465253    3.738385
  34 H     1.0000    0     1.008    1.615242    2.164116    4.625369
  35 H     1.0000    0     1.008   -3.059298    2.564801   -3.295337
  36 H     1.0000    0     1.008    1.251199    4.093243   -2.504507
  37 H     1.0000    0     1.008    0.236329    5.705612    0.240910
  38 H     1.0000    0     1.008   -1.600097    6.666383   -5.152735
  39 H     1.0000    0     1.008    0.413912    8.652480   -3.392656
  40 H     1.0000    0     1.008   -4.074297   10.224607   -3.308019
  41 H     1.0000    0     1.008   -2.991508    9.441412   -0.255251
  42 H     1.0000    0     1.008   -6.304852    6.112523   -3.643753
  43 H     1.0000    0     1.008   -7.303276    7.707329   -0.890894
  44 H     1.0000    0     1.008   -4.418286    5.107701    1.734844
  45 H     1.0000    0     1.008   -6.474007    3.164762   -0.019011
  46 H     1.0000    0     1.008   -3.369026   -3.979710   -0.133381
  47 H     1.0000    0     1.008   -7.773997   -0.282531    0.476056
  48 H     1.0000    0     1.008   -6.367249   -1.990832    2.967554
  49 H     1.0000    0     1.008  -10.192302   -4.197097    1.400708
  50 H     1.0000    0     1.008   -7.460382   -6.041402    0.897922
  51 H     1.0000    0     1.008  -10.155821   -2.795725   -3.072226
  52 H     1.0000    0     1.008  -10.160574   -6.125375   -2.942674
  53 H     1.0000    0     1.008   -7.019051   -4.465521   -6.119357
  54 H     1.0000    0     1.008   -5.529057   -6.225516   -3.712635
  55 H     1.0000    0     1.008   -3.149665   -2.255556   -4.568914
  56 H     1.0000    0     1.008   -5.880374   -0.455951   -3.956684
  57 C     6.0000    0    12.011    6.701906    0.239213    0.053600
  58 C     6.0000    0    12.011    8.295665    2.321032    0.540549
  59 C     6.0000    0    12.011   10.903996    2.103919    0.304442
  60 C     6.0000    0    12.011   11.979856   -0.201180   -0.401109
  61 C     6.0000    0    12.011   10.430187   -2.292107   -0.857325
  62 C     6.0000    0    12.011    7.823400   -2.082924   -0.628952
  63 H     1.0000    0     1.008    7.451570    4.114125    1.083493
  64 H     1.0000    0     1.008   12.104083    3.728156    0.675201
  65 H     1.0000    0     1.008   11.265298   -4.094766   -1.373617
  66 H     1.0000    0     1.008    6.629212   -3.732702   -0.908166
  67 H     1.0000    0     1.008   14.017769   -0.373828   -0.576554
* core charge reduced due to ECP

--------------------------------
INTERNAL COORDINATES (ANGSTROEM)
--------------------------------
 Ru     0   0   0     0.000000000000     0.00000000     0.00000000
 Cl     1   0   0     2.295900847899     0.00000000     0.00000000
 Cl     1   2   0     2.293865136518   140.29965372     0.00000000
 P      1   2   3     2.200450408368    97.88463508   245.70575770
 C      1   2   3     1.834401142745   106.15174997   147.07638687
 C      4   1   2     1.857843727552   119.66760336   201.55202124
 C      6   4   1     1.538495785303   111.92830520   304.93531584
 C      7   6   4     1.534677839013   110.56418153   189.09172846
 C      8   7   6     1.533500601151   111.20310342   303.02765009
 C      9   8   7     1.533373063892   110.99509733    54.83916019
 C     10   9   8     1.536538787232   111.30219877   304.91591605
 C      4   1   2     1.860314548907   113.77815153   329.00465759
 C     12   4   1     1.541325223559   114.02259580   313.22869322
 C     13  12   4     1.534213372003   110.21466333   171.53061300
 C     14  13  12     1.533330407439   111.50724957    56.85839270
 C     15  14  13     1.533019056548   110.91143908   304.35472021
 C     16  15  14     1.536890440534   111.45310168    55.15610293
 C      4   1   2     1.871302960972   106.00288258    85.96343543
 C     18   4   1     1.540811843164   118.63502093   160.04180791
 C     19  18   4     1.537533932470   109.67879145   188.65236698
 C     20  19  18     1.533613288427   111.52681273   302.70640496
 C     21  20  19     1.533452885924   111.11023644    55.19416831
 C     22  21  20     1.534624050780   111.25414405   305.36994244
 H      5   1   2     1.094085319242   123.35891616    88.80852432
 H      6   4   1     1.101424458154   102.77665300   188.77919001
 H      7   6   4     1.095192831241   108.59948900    68.18161816
 H      7   6   4     1.094151842774   111.12019359   311.97117441
 H      8   7   6     1.096172870826   109.58378276   180.74942481
 H      8   7   6     1.099934986205   109.35878047    63.88919413
 H      9   8   7     1.098973898905   109.01625047   294.71507312
 H      9   8   7     1.096460069121   110.46735465   177.49383577
 H     10   9   8     1.096583366785   110.44742320   182.89603360
 H     10   9   8     1.099597546027   109.44335461    65.49257885
 H     11  10   9     1.093914338020   109.76117855   179.94201006
 H     11  10   9     1.096020561875   109.04082875   297.44393107
 H     12   4   1     1.099409256042   101.76452229    67.19578351
 H     13  12   4     1.092245684499   109.57768061    50.12568195
 H     13  12   4     1.097405828135   110.04511934   291.85119040
 H     14  13  12     1.098660911873   108.70453267   295.95941390
 H     14  13  12     1.096422120146   109.63960483   179.47554812
 H     15  14  13     1.096452833779   110.48185524   181.87458688
 H     15  14  13     1.099807826252   109.22538520    64.65208319
 H     16  15  14     1.099020839826   109.29884830   294.79558208
 H     16  15  14     1.096818655785   110.54837093   177.34121982
 H     17  16  15     1.097909361573   109.17501416    64.32425897
 H     17  16  15     1.093678105508   109.66708234   181.20712713
 H     18   4   1     1.100002262600   101.04555854    43.15949200
 H     19  18   4     1.096646450905   110.09956968    68.71171871
 H     19  18   4     1.093925403465   111.28444480   309.96713563
 H     20  19  18     1.096711002699   109.60269819   180.08040961
 H     20  19  18     1.098936963973   108.76831050    63.47048767
 H     21  20  19     1.099681729225   109.06613910   294.85716105
 H     21  20  19     1.096418260728   110.19197978   177.89902617
 H     22  21  20     1.096296994076   110.42552651   183.28147898
 H     22  21  20     1.098674580245   109.52522575    65.76064239
 H     23  22  21     1.094886109488   110.59715164   179.63190621
 H     23  22  21     1.098859592205   109.10683448   296.76897607
 C      5   1   2     1.453858635744   121.55350982   275.79171145
 C     58   5   1     1.411143667415   119.23695835   157.74616389
 C     59  58   5     1.390666371782   120.81629153   182.30044999
 C     60  59  58     1.396943900706   120.04319208   359.43801459
 C     61  60  59     1.398228597155   119.87548172   359.69021481
 C     62  61  60     1.389152952640   120.28607460     0.44379187
 H     59  58   5     1.087387545481   118.94509438     1.55003577
 H     60  59  58     1.086530679443   119.90320828   179.62755910
 H     62  61  60     1.086238266524   119.98461143   181.08623699
 H     63  62  61     1.087818122257   120.07262893   182.56686235
 H     61  60  59     1.086254808731   120.05900449   180.30584786

---------------------------
INTERNAL COORDINATES (A.U.)
---------------------------
 Ru     0   0   0     0.000000000000     0.00000000     0.00000000
 Cl     1   0   0     4.338623833167     0.00000000     0.00000000
 Cl     1   2   0     4.334776896168   140.29965372     0.00000000
 P      1   2   3     4.158248643090    97.88463508   245.70575770
 C      1   2   3     3.466515779540   106.15174997   147.07638687
 C      4   1   2     3.510815844698   119.66760336   201.55202124
 C      6   4   1     2.907335692414   111.92830520   304.93531584
 C      7   6   4     2.900120819532   110.56418153   189.09172846
 C      8   7   6     2.897896162379   111.20310342   303.02765009
 C      9   8   7     2.897655151888   110.99509733    54.83916019
 C     10   9   8     2.903637502016   111.30219877   304.91591605
 C      4   1   2     3.515485020383   113.77815153   329.00465759
 C     12   4   1     2.912682555831   114.02259580   313.22869322
 C     13  12   4     2.899243104086   110.21466333   171.53061300
 C     14  13  12     2.897574542874   111.50724957    56.85839270
 C     15  14  13     2.896986174957   110.91143908   304.35472021
 C     16  15  14     2.904302030452   111.45310168    55.15610293
 C      4   1   2     3.536250109833   106.00288258    85.96343543
 C     18   4   1     2.911712407481   118.63502093   160.04180791
 C     19  18   4     2.905518053979   109.67879145   188.65236698
 C     20  19  18     2.898109110470   111.52681273   302.70640496
 C     21  20  19     2.897805993668   111.11023644    55.19416831
 C     22  21  20     2.900019174503   111.25414405   305.36994244
 H      5   1   2     2.067521620510   123.35891616    88.80852432
 H      6   4   1     2.081390583113   102.77665300   188.77919001
 H      7   6   4     2.069614514880   108.59948900    68.18161816
 H      7   6   4     2.067647331767   111.12019359   311.97117441
 H      8   7   6     2.071466521295   109.58378276   180.74942481
 H      8   7   6     2.078575889045   109.35878047    63.88919413
 H      9   8   7     2.076759697258   109.01625047   294.71507312
 H      9   8   7     2.072009247419   110.46735465   177.49383577
 H     10   9   8     2.072242246237   110.44742320   182.89603360
 H     10   9   8     2.077938219523   109.44335461    65.49257885
 H     11  10   9     2.067198512827   109.76117855   179.94201006
 H     11  10   9     2.071178699090   109.04082875   297.44393107
 H     12   4   1     2.077582403017   101.76452229    67.19578351
 H     13  12   4     2.064045214660   109.57768061    50.12568195
 H     13  12   4     2.073796472944   110.04511934   291.85119040
 H     14  13  12     2.076168237484   108.70453267   295.95941390
 H     14  13  12     2.071937534249   109.63960483   179.47554812
 H     15  14  13     2.071995574603   110.48185524   181.87458688
 H     15  14  13     2.078335591560   109.22538520    64.65208319
 H     16  15  14     2.076848402743   109.29884830   294.79558208
 H     16  15  14     2.072686878009   110.54837093   177.34121982
 H     17  16  15     2.074748013242   109.17501416    64.32425897
 H     17  16  15     2.066752098076   109.66708234   181.20712713
 H     18   4   1     2.078703023008   101.04555854    43.15949200
 H     19  18   4     2.072361457948   110.09956968    68.71171871
 H     19  18   4     2.067219423488   111.28444480   309.96713563
 H     20  19  18     2.072483443159   109.60269819   180.08040961
 H     20  19  18     2.076689900352   108.76831050    63.47048767
 H     21  20  19     2.078097302713   109.06613910   294.85716105
 H     21  20  19     2.071930241006   110.19197978   177.89902617
 H     22  21  20     2.071701080246   110.42552651   183.28147898
 H     22  21  20     2.076194066964   109.52522575    65.76064239
 H     23  22  21     2.069034894767   110.59715164   179.63190621
 H     23  22  21     2.076543688900   109.10683448   296.76897607
 C      5   1   2     2.747394658992   121.55350982   275.79171145
 C     58   5   1     2.666675067032   119.23695835   157.74616389
 C     59  58   5     2.627978586322   120.81629153   182.30044999
 C     60  59  58     2.639841396787   120.04319208   359.43801459
 C     61  60  59     2.642269121240   119.87548172   359.69021481
 C     62  61  60     2.625118638618   120.28607460     0.44379187
 H     59  58   5     2.054864662397   118.94509438     1.55003577
 H     60  59  58     2.053245420251   119.90320828   179.62755910
 H     62  61  60     2.052692839915   119.98461143   181.08623699
 H     63  62  61     2.055678334582   120.07262893   182.56686235
 H     61  60  59     2.052724100156   120.05900449   180.30584786

---------------------
BASIS SET INFORMATION
---------------------
There are 5 groups of distinct atoms

 Group   1 Type Ru  : 7s7p5d2f1g contracted to 6s4p3d2f1g pattern {211111/4111/311/11/1}
 Group   2 Type Cl  : 15s10p4d1f contracted to 6s6p4d1f pattern {732111/511111/1111/1}
 Group   3 Type P   : 15s9p4d1f contracted to 6s5p4d1f pattern {732111/51111/1111/1}
 Group   4 Type C   : 12s6p3d1f contracted to 6s3p3d1f pattern {621111/411/111/1}
 Group   5 Type H   : 5s3p1d contracted to 3s3p1d pattern {311/111/1}

Atom   0Ru   basis set group =>   1
Atom   1Cl   basis set group =>   2
Atom   2Cl   basis set group =>   2
Atom   3P    basis set group =>   3
Atom   4C    basis set group =>   4
Atom   5C    basis set group =>   4
Atom   6C    basis set group =>   4
Atom   7C    basis set group =>   4
Atom   8C    basis set group =>   4
Atom   9C    basis set group =>   4
Atom  10C    basis set group =>   4
Atom  11C    basis set group =>   4
Atom  12C    basis set group =>   4
Atom  13C    basis set group =>   4
Atom  14C    basis set group =>   4
Atom  15C    basis set group =>   4
Atom  16C    basis set group =>   4
Atom  17C    basis set group =>   4
Atom  18C    basis set group =>   4
Atom  19C    basis set group =>   4
Atom  20C    basis set group =>   4
Atom  21C    basis set group =>   4
Atom  22C    basis set group =>   4
Atom  23H    basis set group =>   5
Atom  24H    basis set group =>   5
Atom  25H    basis set group =>   5
Atom  26H    basis set group =>   5
Atom  27H    basis set group =>   5
Atom  28H    basis set group =>   5
Atom  29H    basis set group =>   5
Atom  30H    basis set group =>   5
Atom  31H    basis set group =>   5
Atom  32H    basis set group =>   5
Atom  33H    basis set group =>   5
Atom  34H    basis set group =>   5
Atom  35H    basis set group =>   5
Atom  36H    basis set group =>   5
Atom  37H    basis set group =>   5
Atom  38H    basis set group =>   5
Atom  39H    basis set group =>   5
Atom  40H    basis set group =>   5
Atom  41H    basis set group =>   5
Atom  42H    basis set group =>   5
Atom  43H    basis set group =>   5
Atom  44H    basis set group =>   5
Atom  45H    basis set group =>   5
Atom  46H    basis set group =>   5
Atom  47H    basis set group =>   5
Atom  48H    basis set group =>   5
Atom  49H    basis set group =>   5
Atom  50H    basis set group =>   5
Atom  51H    basis set group =>   5
Atom  52H    basis set group =>   5
Atom  53H    basis set group =>   5
Atom  54H    basis set group =>   5
Atom  55H    basis set group =>   5
Atom  56H    basis set group =>   5
Atom  57C    basis set group =>   4
Atom  58C    basis set group =>   4
Atom  59C    basis set group =>   4
Atom  60C    basis set group =>   4
Atom  61C    basis set group =>   4
Atom  62C    basis set group =>   4
Atom  63H    basis set group =>   5
Atom  64H    basis set group =>   5
Atom  65H    basis set group =>   5
Atom  66H    basis set group =>   5
Atom  67H    basis set group =>   5
----------------------------------
AUXILIARY/JK BASIS SET INFORMATION
----------------------------------
There are 5 groups of distinct atoms

 Group   1 Type Ru  : 13s12p10d9f6g3h2i contracted to 11s10p9d8f6g3h2i pattern {31111111111/3111111111/211111111/21111111/111111/111/11}
 Group   2 Type Cl  : 16s12p10d4f1g contracted to 13s11p9d4f1g pattern {4111111111111/21111111111/211111111/1111/1}
 Group   3 Type P   : 16s12p10d4f1g contracted to 13s11p9d4f1g pattern {4111111111111/21111111111/211111111/1111/1}
 Group   4 Type C   : 14s10p6d2f1g contracted to 10s8p5d1f1g pattern {5111111111/31111111/21111/2/1}
 Group   5 Type H   : 4s2p2d contracted to 2s2p2d pattern {31/11/11}

Atom   0Ru   basis set group =>   1
Atom   1Cl   basis set group =>   2
Atom   2Cl   basis set group =>   2
Atom   3P    basis set group =>   3
Atom   4C    basis set group =>   4
Atom   5C    basis set group =>   4
Atom   6C    basis set group =>   4
Atom   7C    basis set group =>   4
Atom   8C    basis set group =>   4
Atom   9C    basis set group =>   4
Atom  10C    basis set group =>   4
Atom  11C    basis set group =>   4
Atom  12C    basis set group =>   4
Atom  13C    basis set group =>   4
Atom  14C    basis set group =>   4
Atom  15C    basis set group =>   4
Atom  16C    basis set group =>   4
Atom  17C    basis set group =>   4
Atom  18C    basis set group =>   4
Atom  19C    basis set group =>   4
Atom  20C    basis set group =>   4
Atom  21C    basis set group =>   4
Atom  22C    basis set group =>   4
Atom  23H    basis set group =>   5
Atom  24H    basis set group =>   5
Atom  25H    basis set group =>   5
Atom  26H    basis set group =>   5
Atom  27H    basis set group =>   5
Atom  28H    basis set group =>   5
Atom  29H    basis set group =>   5
Atom  30H    basis set group =>   5
Atom  31H    basis set group =>   5
Atom  32H    basis set group =>   5
Atom  33H    basis set group =>   5
Atom  34H    basis set group =>   5
Atom  35H    basis set group =>   5
Atom  36H    basis set group =>   5
Atom  37H    basis set group =>   5
Atom  38H    basis set group =>   5
Atom  39H    basis set group =>   5
Atom  40H    basis set group =>   5
Atom  41H    basis set group =>   5
Atom  42H    basis set group =>   5
Atom  43H    basis set group =>   5
Atom  44H    basis set group =>   5
Atom  45H    basis set group =>   5
Atom  46H    basis set group =>   5
Atom  47H    basis set group =>   5
Atom  48H    basis set group =>   5
Atom  49H    basis set group =>   5
Atom  50H    basis set group =>   5
Atom  51H    basis set group =>   5
Atom  52H    basis set group =>   5
Atom  53H    basis set group =>   5
Atom  54H    basis set group =>   5
Atom  55H    basis set group =>   5
Atom  56H    basis set group =>   5
Atom  57C    basis set group =>   4
Atom  58C    basis set group =>   4
Atom  59C    basis set group =>   4
Atom  60C    basis set group =>   4
Atom  61C    basis set group =>   4
Atom  62C    basis set group =>   4
Atom  63H    basis set group =>   5
Atom  64H    basis set group =>   5
Atom  65H    basis set group =>   5
Atom  66H    basis set group =>   5
Atom  67H    basis set group =>   5
-------------------------
ECP PARAMETER INFORMATION
-------------------------

 Group 1, Type Ru ECP Def2-ECP (replacing 28 core electrons, lmax=3)

Atom   0Ru   ECP group =>   1



           ************************************************************
           *        Program running with 24 parallel MPI-processes    *
           *              working on a common directory               *
           ************************************************************
------------------------------------------------------------------------------
                           ORCA GTO INTEGRAL CALCULATION
------------------------------------------------------------------------------

                         BASIS SET STATISTICS AND STARTUP INFO

 # of primitive gaussian shells          ... 1012
 # of primitive gaussian functions       ... 2330
 # of contracted shells                  ...  664
 # of contracted basis functions         ... 1794
 Highest angular momentum                ...    4
 Maximum contraction depth               ...    7
 Integral package used                   ... LIBINT
 Integral threshhold            Thresh   ...  1.000e-10
 Primitive cut-off              TCut     ...  1.000e-11


------------------------------ INTEGRAL EVALUATION ----------------------------


 * One electron integrals 

   ECP integrals                         ... done
 Pre-screening matrix                    ... done
 Shell pair data                         ... done (   0.051 sec)



           ************************************************************
           *        Program running with 24 parallel MPI-processes    *
           *              working on a common directory               *
           ************************************************************
-------------------------------------------------------------------------------
                                 ORCA SCF
-------------------------------------------------------------------------------

------------
SCF SETTINGS
------------
Hamiltonian:
 Density Functional     Method          .... DFT(GTOs)
 Exchange Functional    Exchange        .... WB97M-V
 Correlation Functional Correlation     .... WB97M-V
 Gradients option       PostSCFGGA      .... off
 Hybrid DFT is turned on
   Fraction HF Exchange ScalHFX         ....  0.150000
   Scaling of DF-GGA-X  ScalDFX         ....  0.000000
   Scaling of DF-GGA-C  ScalDFC         ....  1.000000
   Scaling of DF-LDA-C  ScalLDAC        ....  1.000000
   Perturbative correction              ....  0.000000
   Density functional embedding theory  .... OFF
 Long-range corrected/Screened/Range-Separated Hybrid DFT is turned on
   Amount of maximum screened exact exchange              ....  0.850000
   Range separation parameter mu (erf(mu*r12)/r12)        ....  0.300000
   NL short-range parameter             ....  6.000000
   NL long-range parameter              ....  0.010000


General Settings:
 Integral files         IntName         .... MOR13_ed24
 Hartree-Fock type      HFTyp           .... RHF
 Total Charge           Charge          ....    0
 Multiplicity           Mult            ....    1
 Number of Electrons    NEL             ....  254
 Basis Dimension        Dim             .... 1794
 Nuclear Repulsion      ENuc            ....   3925.9709139951 Eh

Convergence Acceleration:
 DIIS                   CNVDIIS         .... on
   Start iteration      DIISMaxIt       ....    12
   Startup error        DIISStart       ....  0.200000
   # of expansion vecs  DIISMaxEq       ....     5
   Bias factor          DIISBfac        ....   1.050
   Max. coefficient     DIISMaxC        ....  10.000
 Newton-Raphson         CNVNR           .... off
 SOSCF                  CNVSOSCF        .... off
 Level Shifting         CNVShift        .... on
   Level shift para.    LevelShift      ....    0.2500
   Turn off err/grad.   ShiftErr        ....    0.0010
 Zerner damping         CNVZerner       .... off
 Static damping         CNVDamp         .... on
   Fraction old density DampFac         ....    0.7000
   Max. Damping (<1)    DampMax         ....    0.9800
   Min. Damping (>=0)   DampMin         ....    0.0000
   Turn off err/grad.   DampErr         ....    0.1000
 Fernandez-Rico         CNVRico         .... off

SCF Procedure:
 Maximum # iterations   MaxIter         ....   125
 SCF integral mode      SCFMode         .... Direct
   Integral package                     .... LIBINT
 Reset frequency        DirectResetFreq ....    20
 Integral Threshold     Thresh          ....  1.000e-10 Eh
 Primitive CutOff       TCut            ....  1.000e-11 Eh

Convergence Tolerance:
 Convergence Check Mode ConvCheckMode   .... Total+1el-Energy
 Convergence forced     ConvForced      .... 0
 Energy Change          TolE            ....  1.000e-06 Eh
 1-El. energy change                    ....  1.000e-03 Eh
 DIIS Error             TolErr          ....  1.000e-06


Diagonalization of the overlap matrix:
Smallest eigenvalue                        ... 2.919e-07
Time for diagonalization                   ...    0.399 sec
Threshold for overlap eigenvalues          ... 1.000e-08
Number of eigenvalues below threshold      ... 0
Time for construction of square roots      ...    0.433 sec
Total time needed                          ...    0.844 sec

-------------------
DFT GRID GENERATION
-------------------

General Integration Accuracy     IntAcc      ...  4.670
Radial Grid Type                 RadialGrid  ... Gauss-Chebyshev
Angular Grid (max. acc.)         AngularGrid ... Lebedev-302
Angular grid pruning method      GridPruning ... 3 (G Style)
Weight generation scheme         WeightScheme... Becke
Basis function cutoff            BFCut       ...    1.0000e-10
Integration weight cutoff        WCut        ...    1.0000e-14
Grids for H and He will be reduced by one unit

# of grid points (after initial pruning)     ... 318502 (   0.0 sec)
# of grid points (after weights+screening)   ... 267529 (   0.4 sec)
nearest neighbour list constructed           ...    0.0 sec
Grid point re-assignment to atoms done       ...    0.0 sec
Grid point division into batches done        ...    0.8 sec
Reduced shell lists constructed in    1.4 sec

Total number of grid points                  ...   267529
Total number of batches                      ...     4211
Average number of points per batch           ...       63
Average number of grid points per atom       ...     3934
Average number of shells per batch           ...   287.44 (43.29%)
Average number of basis functions per batch  ...   742.69 (41.40%)
Average number of large shells per batch     ...   186.08 (64.74%)
Average number of large basis fcns per batch ...   494.31 (66.56%)
Maximum spatial batch extension              ...  16.36, 17.07, 11.26 au
Average spatial batch extension              ...   0.08,  0.10,  0.08 au

Time for grid setup =    1.896 sec

------------------------------
INITIAL GUESS: MODEL POTENTIAL
------------------------------
Loading Hartree-Fock densities                     ... done
  calling /sw/apps/orca/orca_4_2_0_linux_x86-64_openmpi314/orca MOR13_ed24_atom44.inp > MOR13_ed24_atom44.out in order to generate an atomic fitting density for atom 0 (Ru with ECP) on-the-fly... 
    atom 0 (Ru), assumed electronic state with S=5: 1s2 2s2 2p6 3s2 3p6 4s2 3d10 4p6 5s2 4d6           ... done
Calculating cut-offs                               ... done
Setting up the integral package                    ... done
Initializing the effective Hamiltonian             ... done
Starting the Coulomb interaction                   ... done (   0.7 sec)
Reading the grid                                   ... done
Mapping shells                                     ... done
Starting the XC term evaluation                    ... done (   1.9 sec)
  promolecular density results
     # of electrons  =    281.983225679
     EX              =   -345.539712644
     EC              =    -10.549271487
     EX+EC           =   -356.088984131
Transforming the Hamiltonian                       ... done (   0.2 sec)
Diagonalizing the Hamiltonian                      ... done (   0.4 sec)
Back transforming the eigenvectors                 ... done (   0.1 sec)
Now organizing SCF variables                       ... done
                      ------------------
                      INITIAL GUESS DONE (   6.5 sec)
                      ------------------
--------------
SCF ITERATIONS
--------------
ITER       Energy         Delta-E        Max-DP      RMS-DP      [F,P]     Damp
               ***  Starting incremental Fock matrix formation  ***
  0  -2332.6532800723   0.000000000000 1.52518924  0.00514645  0.4029406 0.7000
  1  -2333.0825953365  -0.429315264189 1.22980609  0.00337271  0.3118650 0.7000
  2  -2333.2677038288  -0.185108492351 0.93647564  0.00257880  0.2292623 0.7000
                               ***Turning on DIIS***
  3  -2333.3852992621  -0.117595433270 0.66448067  0.00193391  0.1591894 0.7000
  4  -2333.4665654025  -0.081266140354 0.38818872  0.00127376  0.1082397 0.7000
  5  -2333.5231109702  -0.056545567754 0.94638541  0.00321518  0.0767101 0.0000
  6  -2333.6566065658  -0.133495595559 0.13699072  0.00038833  0.0031023 0.0000
  7  -2333.6570907629  -0.000484197153 0.33580581  0.00047114  0.0022835 0.0000
  8  -2333.6573129485  -0.000222185573 0.40047460  0.00076311  0.0019187 0.0000
  9  -2333.6574609668  -0.000148018269 0.36144137  0.00043938  0.0011242 0.0000
 10  -2333.6575156818  -0.000054714988 0.12966011  0.00029085  0.0016229 0.0000
 11  -2333.6575416995  -0.000026017698 0.24724095  0.00050108  0.0004618 0.0000
 12  -2333.6575565164  -0.000014816968 0.10951643  0.00037840  0.0001547 0.0000
 13  -2333.6575576062  -0.000001089797 0.18901436  0.00036114  0.0001010 0.0000
                 **** Energy Check signals convergence ****

               *****************************************************
               *                     SUCCESS                       *
               *           SCF CONVERGED AFTER  14 CYCLES          *
               *****************************************************


Setting up the DFT-NL grid :

General Integration Accuracy     IntAcc      ...  4.340
Radial Grid Type                 RadialGrid  ... Gauss-Chebyshev
Angular Grid (max. acc.)         AngularGrid ... Lebedev-110
Angular grid pruning method      GridPruning ... 3 (G Style)
Weight generation scheme         WeightScheme... Becke
Basis function cutoff            BFCut       ...    1.0000e-10
Integration weight cutoff        WCut        ...    1.0000e-14
Grids for H and He will be reduced by one unit

# of grid points (after initial pruning)     ...  81140 (   0.0 sec)
# of grid points (after weights+screening)   ...  70052 (   0.1 sec)
nearest neighbour list constructed           ...    0.0 sec
Grid point re-assignment to atoms done       ...    0.0 sec
Grid point division into batches done        ...    0.1 sec
Reduced shell lists constructed in    0.2 sec

Total number of grid points                  ...    70052
Total number of batches                      ...     1126
Average number of points per batch           ...       62
Average number of grid points per atom       ...     1030
Average number of shells per batch           ...   307.21 (46.27%)
Average number of basis functions per batch  ...   799.62 (44.57%)
Average number of large shells per batch     ...   204.38 (66.53%)
Average number of large basis fcns per batch ...   543.71 (68.00%)
Maximum spatial batch extension              ...  15.04, 16.40, 14.51 au
Average spatial batch extension              ...   0.12,  0.13,  0.11 au

Final grid set up in    0.4 sec

-------------------------------------------------------------------------------
                         DFT-NL dispersion correction                          
-------------------------------------------------------------------------------

SC Energy -2333.657557483 
NL    Energy 0.915554539 
SC+NL Energy -2332.742002944 
NL done in    2.2 sec
-------------------------------------------------------------------------------

----------------
TOTAL SCF ENERGY
----------------

Total Energy       :        -2332.74200294 Eh          -63477.13702 eV

Components:
Nuclear Repulsion  :         3925.97091400 Eh          106831.09976 eV
Electronic Energy  :        -6258.71291694 Eh         -170308.23677 eV
One Electron Energy:       -11047.23365361 Eh         -300610.51046 eV
Two Electron Energy:         4788.52073668 Eh          130302.27368 eV

Virial components:
Potential Energy   :        -4599.03760167 Eh         -125146.17545 eV
Kinetic Energy     :         2266.29559873 Eh           61669.03843 eV
Virial Ratio       :            2.02931939


DFT components:
N(Alpha)           :      127.000485638825 electrons
N(Beta)            :      127.000485638825 electrons
N(Total)           :      254.000971277650 electrons
E(X)               :     -164.201996066021 Eh       
E(C)               :       -8.415213522780 Eh       
NL Energy, E(C,NL) :        0.915554538977 Eh       
E(XC)              :     -171.701655049824 Eh       
DFET-embed. en.    :        0.000000000000 Eh       

---------------
SCF CONVERGENCE
---------------

  Last Energy change         ...    1.2349e-07  Tolerance :   1.0000e-06
  Last MAX-Density change    ...    6.6261e-01  Tolerance :   1.0000e-05
  Last RMS-Density change    ...    7.2314e-04  Tolerance :   1.0000e-06
  Last DIIS Error            ...    5.2354e-05  Tolerance :   1.0000e-06

             **** THE GBW FILE WAS UPDATED (MOR13_ed24.gbw) ****
             **** DENSITY FILE WAS UPDATED (MOR13_ed24.scfp) ****
             **** ENERGY FILE WAS UPDATED (MOR13_ed24.en.tmp) ****
             **** THE GBW FILE WAS UPDATED (MOR13_ed24.gbw) ****
             **** DENSITY FILE WAS UPDATED (MOR13_ed24.scfp) ****
----------------
ORBITAL ENERGIES
----------------

  NO   OCC          E(Eh)            E(eV) 
   0   2.0000    -101.818417     -2770.6200 
   1   2.0000    -101.817312     -2770.5899 
   2   2.0000     -77.413068     -2106.5167 
   3   2.0000     -10.382407      -282.5197 
   4   2.0000     -10.368751      -282.1481 
   5   2.0000     -10.368174      -282.1324 
   6   2.0000     -10.364631      -282.0360 
   7   2.0000     -10.364476      -282.0317 
   8   2.0000     -10.363216      -281.9974 
   9   2.0000     -10.361881      -281.9611 
  10   2.0000     -10.359963      -281.9089 
  11   2.0000     -10.359706      -281.9019 
  12   2.0000     -10.358182      -281.8605 
  13   2.0000     -10.356247      -281.8078 
  14   2.0000     -10.355972      -281.8003 
  15   2.0000     -10.354554      -281.7617 
  16   2.0000     -10.349862      -281.6341 
  17   2.0000     -10.348694      -281.6023 
  18   2.0000     -10.347043      -281.5574 
  19   2.0000     -10.346919      -281.5540 
  20   2.0000     -10.345014      -281.5021 
  21   2.0000     -10.344962      -281.5007 
  22   2.0000     -10.344844      -281.4975 
  23   2.0000     -10.344732      -281.4945 
  24   2.0000     -10.344428      -281.4862 
  25   2.0000     -10.343233      -281.4537 
  26   2.0000     -10.342119      -281.4234 
  27   2.0000     -10.342112      -281.4232 
  28   2.0000      -9.591420      -260.9958 
  29   2.0000      -9.590313      -260.9657 
  30   2.0000      -7.292765      -198.4462 
  31   2.0000      -7.291646      -198.4158 
  32   2.0000      -7.289721      -198.3634 
  33   2.0000      -7.289169      -198.3484 
  34   2.0000      -7.288637      -198.3339 
  35   2.0000      -7.288054      -198.3180 
  36   2.0000      -6.758857      -183.9179 
  37   2.0000      -4.871120      -132.5499 
  38   2.0000      -4.870992      -132.5464 
  39   2.0000      -4.869317      -132.5008 
  40   2.0000      -3.167506       -86.1922 
  41   2.0000      -2.011062       -54.7238 
  42   2.0000      -2.009264       -54.6749 
  43   2.0000      -1.995900       -54.3112 
  44   2.0000      -0.994853       -27.0713 
  45   2.0000      -0.981111       -26.6974 
  46   2.0000      -0.966762       -26.3069 
  47   2.0000      -0.965607       -26.2755 
  48   2.0000      -0.905431       -24.6380 
  49   2.0000      -0.902287       -24.5525 
  50   2.0000      -0.883845       -24.0506 
  51   2.0000      -0.879932       -23.9442 
  52   2.0000      -0.878792       -23.9132 
  53   2.0000      -0.874258       -23.7898 
  54   2.0000      -0.873463       -23.7681 
  55   2.0000      -0.871981       -23.7278 
  56   2.0000      -0.868475       -23.6324 
  57   2.0000      -0.867109       -23.5952 
  58   2.0000      -0.791679       -21.5427 
  59   2.0000      -0.784278       -21.3413 
  60   2.0000      -0.744434       -20.2571 
  61   2.0000      -0.737838       -20.0776 
  62   2.0000      -0.734410       -19.9843 
  63   2.0000      -0.731680       -19.9100 
  64   2.0000      -0.729500       -19.8507 
  65   2.0000      -0.725590       -19.7443 
  66   2.0000      -0.698006       -18.9937 
  67   2.0000      -0.686232       -18.6733 
  68   2.0000      -0.684374       -18.6228 
  69   2.0000      -0.682520       -18.5723 
  70   2.0000      -0.660071       -17.9614 
  71   2.0000      -0.629570       -17.1315 
  72   2.0000      -0.604111       -16.4387 
  73   2.0000      -0.598681       -16.2909 
  74   2.0000      -0.588938       -16.0258 
  75   2.0000      -0.583775       -15.8853 
  76   2.0000      -0.569258       -15.4903 
  77   2.0000      -0.562713       -15.3122 
  78   2.0000      -0.561723       -15.2853 
  79   2.0000      -0.560146       -15.2423 
  80   2.0000      -0.557458       -15.1692 
  81   2.0000      -0.553667       -15.0661 
  82   2.0000      -0.552546       -15.0356 
  83   2.0000      -0.547758       -14.9053 
  84   2.0000      -0.543276       -14.7833 
  85   2.0000      -0.535218       -14.5640 
  86   2.0000      -0.529479       -14.4078 
  87   2.0000      -0.528453       -14.3799 
  88   2.0000      -0.504600       -13.7309 
  89   2.0000      -0.502096       -13.6627 
  90   2.0000      -0.495423       -13.4812 
  91   2.0000      -0.492690       -13.4068 
  92   2.0000      -0.491404       -13.3718 
  93   2.0000      -0.490754       -13.3541 
  94   2.0000      -0.487889       -13.2761 
  95   2.0000      -0.478339       -13.0163 
  96   2.0000      -0.476543       -12.9674 
  97   2.0000      -0.469320       -12.7709 
  98   2.0000      -0.463947       -12.6246 
  99   2.0000      -0.460775       -12.5383 
 100   2.0000      -0.457885       -12.4597 
 101   2.0000      -0.456200       -12.4138 
 102   2.0000      -0.453988       -12.3536 
 103   2.0000      -0.451838       -12.2951 
 104   2.0000      -0.450841       -12.2680 
 105   2.0000      -0.446257       -12.1433 
 106   2.0000      -0.442508       -12.0413 
 107   2.0000      -0.438434       -11.9304 
 108   2.0000      -0.435139       -11.8407 
 109   2.0000      -0.429784       -11.6950 
 110   2.0000      -0.427599       -11.6356 
 111   2.0000      -0.423459       -11.5229 
 112   2.0000      -0.421567       -11.4714 
 113   2.0000      -0.410901       -11.1812 
 114   2.0000      -0.407069       -11.0769 
 115   2.0000      -0.405900       -11.0451 
 116   2.0000      -0.398368       -10.8401 
 117   2.0000      -0.393443       -10.7061 
 118   2.0000      -0.387429       -10.5425 
 119   2.0000      -0.386697       -10.5226 
 120   2.0000      -0.382185       -10.3998 
 121   2.0000      -0.377892       -10.2830 
 122   2.0000      -0.368351       -10.0233 
 123   2.0000      -0.354982        -9.6595 
 124   2.0000      -0.332656        -9.0520 
 125   2.0000      -0.310736        -8.4556 
 126   2.0000      -0.298968        -8.1353 
 127   0.0000      -0.010213        -0.2779 
 128   0.0000       0.007909         0.2152 
 129   0.0000       0.022901         0.6232 
 130   0.0000       0.029696         0.8081 
 131   0.0000       0.033143         0.9019 
 132   0.0000       0.035306         0.9607 
 133   0.0000       0.036356         0.9893 
 134   0.0000       0.045070         1.2264 
 135   0.0000       0.046403         1.2627 
 136   0.0000       0.048296         1.3142 
 137   0.0000       0.049719         1.3529 
 138   0.0000       0.052728         1.4348 
 139   0.0000       0.056634         1.5411 
 140   0.0000       0.059843         1.6284 
 141   0.0000       0.062445         1.6992 
 142   0.0000       0.068778         1.8716 
 143   0.0000       0.069677         1.8960 
 144   0.0000       0.072358         1.9690 
 145   0.0000       0.073895         2.0108 
 146   0.0000       0.075336         2.0500 
 147   0.0000       0.078431         2.1342 
 148   0.0000       0.082237         2.2378 
 149   0.0000       0.089834         2.4445 
 150   0.0000       0.094153         2.5620 
 151   0.0000       0.096999         2.6395 
 152   0.0000       0.097673         2.6578 
 153   0.0000       0.099068         2.6958 
 154   0.0000       0.101791         2.7699 
 155   0.0000       0.106905         2.9090 
 156   0.0000       0.111102         3.0233 
 157   0.0000       0.113122         3.0782 
 158   0.0000       0.115734         3.1493 
 159   0.0000       0.118352         3.2205 
 160   0.0000       0.120643         3.2829 
 161   0.0000       0.124372         3.3843 
 162   0.0000       0.127578         3.4716 
 163   0.0000       0.128951         3.5089 
 164   0.0000       0.130302         3.5457 
 165   0.0000       0.131553         3.5797 
 166   0.0000       0.136981         3.7275 
 167   0.0000       0.138796         3.7768 
 168   0.0000       0.140545         3.8244 
 169   0.0000       0.145733         3.9656 
 170   0.0000       0.149507         4.0683 
 171   0.0000       0.150614         4.0984 
 172   0.0000       0.154406         4.2016 
 173   0.0000       0.155026         4.2185 
 174   0.0000       0.160401         4.3647 
 175   0.0000       0.161050         4.3824 
 176   0.0000       0.163295         4.4435 
 177   0.0000       0.166874         4.5409 
 178   0.0000       0.168035         4.5725 
 179   0.0000       0.171038         4.6542 
 180   0.0000       0.171356         4.6628 
 181   0.0000       0.175152         4.7661 
 182   0.0000       0.178473         4.8565 
 183   0.0000       0.179262         4.8780 
 184   0.0000       0.182832         4.9751 
 185   0.0000       0.186393         5.0720 
 186   0.0000       0.190033         5.1711 
 187   0.0000       0.192256         5.2316 
 188   0.0000       0.194800         5.3008 
 189   0.0000       0.196221         5.3394 
 190   0.0000       0.201988         5.4964 
 191   0.0000       0.203278         5.5315 
 192   0.0000       0.206127         5.6090 
 193   0.0000       0.207091         5.6352 
 194   0.0000       0.209343         5.6965 
 195   0.0000       0.210932         5.7398 
 196   0.0000       0.212388         5.7794 
 197   0.0000       0.215428         5.8621 
 198   0.0000       0.217955         5.9309 
 199   0.0000       0.218302         5.9403 
 200   0.0000       0.220149         5.9906 
 201   0.0000       0.222538         6.0556 
 202   0.0000       0.224158         6.0996 
 203   0.0000       0.227397         6.1878 
 204   0.0000       0.230493         6.2720 
 205   0.0000       0.231920         6.3109 
 206   0.0000       0.233481         6.3533 
 207   0.0000       0.234910         6.3922 
 208   0.0000       0.236252         6.4288 
 209   0.0000       0.239815         6.5257 
 210   0.0000       0.242585         6.6011 
 211   0.0000       0.243937         6.6379 
 212   0.0000       0.246108         6.6969 
 213   0.0000       0.248389         6.7590 
 214   0.0000       0.250432         6.8146 
 215   0.0000       0.251695         6.8490 
 216   0.0000       0.253294         6.8925 
 217   0.0000       0.254152         6.9158 
 218   0.0000       0.255227         6.9451 
 219   0.0000       0.256895         6.9905 
 220   0.0000       0.258820         7.0429 
 221   0.0000       0.259528         7.0621 
 222   0.0000       0.261972         7.1286 
 223   0.0000       0.263655         7.1744 
 224   0.0000       0.265701         7.2301 
 225   0.0000       0.266812         7.2603 
 226   0.0000       0.269299         7.3280 
 227   0.0000       0.270139         7.3509 
 228   0.0000       0.271793         7.3959 
 229   0.0000       0.273567         7.4441 
 230   0.0000       0.274695         7.4748 
 231   0.0000       0.275318         7.4918 
 232   0.0000       0.276516         7.5244 
 233   0.0000       0.277666         7.5557 
 234   0.0000       0.281919         7.6714 
 235   0.0000       0.282599         7.6899 
 236   0.0000       0.282849         7.6967 
 237   0.0000       0.286909         7.8072 
 238   0.0000       0.287701         7.8287 
 239   0.0000       0.289776         7.8852 
 240   0.0000       0.291945         7.9442 
 241   0.0000       0.292924         7.9709 
 242   0.0000       0.295157         8.0316 
 243   0.0000       0.296465         8.0672 
 244   0.0000       0.297683         8.1004 
 245   0.0000       0.300182         8.1684 
 246   0.0000       0.300470         8.1762 
 247   0.0000       0.303550         8.2600 
 248   0.0000       0.303680         8.2635 
 249   0.0000       0.306372         8.3368 
 250   0.0000       0.306859         8.3500 
 251   0.0000       0.309391         8.4189 
 252   0.0000       0.311339         8.4720 
 253   0.0000       0.313005         8.5173 
 254   0.0000       0.313436         8.5290 
 255   0.0000       0.316764         8.6196 
 256   0.0000       0.317823         8.6484 
 257   0.0000       0.318376         8.6634 
 258   0.0000       0.319934         8.7059 
 259   0.0000       0.323830         8.8119 
 260   0.0000       0.325116         8.8469 
 261   0.0000       0.328509         8.9392 
 262   0.0000       0.329362         8.9624 
 263   0.0000       0.330472         8.9926 
 264   0.0000       0.333628         9.0785 
 265   0.0000       0.335030         9.1166 
 266   0.0000       0.336667         9.1612 
 267   0.0000       0.338936         9.2229 
 268   0.0000       0.339911         9.2495 
 269   0.0000       0.342464         9.3189 
 270   0.0000       0.343958         9.3596 
 271   0.0000       0.345192         9.3932 
 272   0.0000       0.346032         9.4160 
 273   0.0000       0.347916         9.4673 
 274   0.0000       0.349978         9.5234 
 275   0.0000       0.351416         9.5625 
 276   0.0000       0.354325         9.6417 
 277   0.0000       0.355578         9.6758 
 278   0.0000       0.356677         9.7057 
 279   0.0000       0.357603         9.7309 
 280   0.0000       0.357785         9.7358 
 281   0.0000       0.360990         9.8230 
 282   0.0000       0.361797         9.8450 
 283   0.0000       0.361971         9.8497 
 284   0.0000       0.365087         9.9345 
 285   0.0000       0.365408         9.9433 
 286   0.0000       0.366841         9.9823 
 287   0.0000       0.368243        10.0204 
 288   0.0000       0.369859        10.0644 
 289   0.0000       0.372069        10.1245 
 290   0.0000       0.372874        10.1464 
 291   0.0000       0.375978        10.2309 
 292   0.0000       0.377189        10.2638 
 293   0.0000       0.377993        10.2857 
 294   0.0000       0.380164        10.3448 
 295   0.0000       0.380979        10.3670 
 296   0.0000       0.383484        10.4351 
 297   0.0000       0.385453        10.4887 
 298   0.0000       0.386890        10.5278 
 299   0.0000       0.389108        10.5882 
 300   0.0000       0.389841        10.6081 
 301   0.0000       0.391896        10.6640 
 302   0.0000       0.392329        10.6758 
 303   0.0000       0.394954        10.7472 
 304   0.0000       0.395049        10.7498 
 305   0.0000       0.397847        10.8260 
 306   0.0000       0.398475        10.8431 
 307   0.0000       0.399497        10.8709 
 308   0.0000       0.400135        10.8882 
 309   0.0000       0.401518        10.9259 
 310   0.0000       0.404553        11.0085 
 311   0.0000       0.404831        11.0160 
 312   0.0000       0.406021        11.0484 
 313   0.0000       0.407777        11.0962 
 314   0.0000       0.410938        11.1822 
 315   0.0000       0.413833        11.2610 
 316   0.0000       0.414546        11.2804 
 317   0.0000       0.417164        11.3516 
 318   0.0000       0.418299        11.3825 
 319   0.0000       0.420475        11.4417 
 320   0.0000       0.422841        11.5061 
 321   0.0000       0.423235        11.5168 
 322   0.0000       0.424795        11.5592 
 323   0.0000       0.427005        11.6194 
 324   0.0000       0.429727        11.6935 
 325   0.0000       0.431998        11.7553 
 326   0.0000       0.433546        11.7974 
 327   0.0000       0.434641        11.8272 
 328   0.0000       0.436075        11.8662 
 329   0.0000       0.438334        11.9277 
 330   0.0000       0.439409        11.9569 
 331   0.0000       0.440152        11.9771 
 332   0.0000       0.442809        12.0494 
 333   0.0000       0.445296        12.1171 
 334   0.0000       0.446267        12.1435 
 335   0.0000       0.448254        12.1976 
 336   0.0000       0.450567        12.2606 
 337   0.0000       0.451990        12.2993 
 338   0.0000       0.452191        12.3048 
 339   0.0000       0.455560        12.3964 
 340   0.0000       0.457460        12.4481 
 341   0.0000       0.458715        12.4823 
 342   0.0000       0.461983        12.5712 
 343   0.0000       0.463358        12.6086 
 344   0.0000       0.465294        12.6613 
 345   0.0000       0.468890        12.7591 
 346   0.0000       0.469771        12.7831 
 347   0.0000       0.473345        12.8804 
 348   0.0000       0.475253        12.9323 
 349   0.0000       0.476716        12.9721 
 350   0.0000       0.478858        13.0304 
 351   0.0000       0.479678        13.0527 
 352   0.0000       0.481357        13.0984 
 353   0.0000       0.482999        13.1431 
 354   0.0000       0.484442        13.1824 
 355   0.0000       0.485649        13.2152 
 356   0.0000       0.490179        13.3385 
 357   0.0000       0.491351        13.3703 
 358   0.0000       0.492945        13.4137 
 359   0.0000       0.494270        13.4498 
 360   0.0000       0.497735        13.5441 
 361   0.0000       0.499140        13.5823 
 362   0.0000       0.501058        13.6345 
 363   0.0000       0.501937        13.6584 
 364   0.0000       0.504820        13.7369 
 365   0.0000       0.506431        13.7807 
 366   0.0000       0.510399        13.8887 
 367   0.0000       0.511469        13.9178 
 368   0.0000       0.512645        13.9498 
 369   0.0000       0.514868        14.0103 
 370   0.0000       0.516978        14.0677 
 371   0.0000       0.518654        14.1133 
 372   0.0000       0.521094        14.1797 
 373   0.0000       0.524375        14.2690 
 374   0.0000       0.525650        14.3037 
 375   0.0000       0.526248        14.3199 
 376   0.0000       0.527827        14.3629 
 377   0.0000       0.528602        14.3840 
 378   0.0000       0.531226        14.4554 
 379   0.0000       0.533140        14.5075 
 380   0.0000       0.535340        14.5673 
 381   0.0000       0.537360        14.6223 
 382   0.0000       0.539621        14.6838 
 383   0.0000       0.541944        14.7470 
 384   0.0000       0.542285        14.7563 
 385   0.0000       0.543198        14.7812 
 386   0.0000       0.546864        14.8809 
 387   0.0000       0.548054        14.9133 
 388   0.0000       0.549287        14.9469 
 389   0.0000       0.551166        14.9980 
 390   0.0000       0.553164        15.0524 
 391   0.0000       0.557023        15.1574 
 392   0.0000       0.558826        15.2064 
 393   0.0000       0.560577        15.2541 
 394   0.0000       0.562551        15.3078 
 395   0.0000       0.563947        15.3458 
 396   0.0000       0.567911        15.4537 
 397   0.0000       0.570156        15.5147 
 398   0.0000       0.571586        15.5536 
 399   0.0000       0.574658        15.6372 
 400   0.0000       0.575888        15.6707 
 401   0.0000       0.578282        15.7358 
 402   0.0000       0.580412        15.7938 
 403   0.0000       0.582012        15.8374 
 404   0.0000       0.583638        15.8816 
 405   0.0000       0.584793        15.9130 
 406   0.0000       0.586259        15.9529 
 407   0.0000       0.589303        16.0357 
 408   0.0000       0.591999        16.1091 
 409   0.0000       0.593340        16.1456 
 410   0.0000       0.594167        16.1681 
 411   0.0000       0.596753        16.2385 
 412   0.0000       0.600162        16.3313 
 413   0.0000       0.600944        16.3525 
 414   0.0000       0.603878        16.4323 
 415   0.0000       0.605388        16.4734 
 416   0.0000       0.607714        16.5367 
 417   0.0000       0.608524        16.5588 
 418   0.0000       0.610872        16.6227 
 419   0.0000       0.611400        16.6370 
 420   0.0000       0.613132        16.6842 
 421   0.0000       0.617675        16.8078 
 422   0.0000       0.618427        16.8283 
 423   0.0000       0.619452        16.8561 
 424   0.0000       0.621936        16.9237 
 425   0.0000       0.624186        16.9850 
 426   0.0000       0.626351        17.0439 
 427   0.0000       0.629684        17.1346 
 428   0.0000       0.631518        17.1845 
 429   0.0000       0.633855        17.2481 
 430   0.0000       0.635656        17.2971 
 431   0.0000       0.637582        17.3495 
 432   0.0000       0.639100        17.3908 
 433   0.0000       0.642214        17.4755 
 434   0.0000       0.644188        17.5293 
 435   0.0000       0.646480        17.5916 
 436   0.0000       0.646851        17.6017 
 437   0.0000       0.649297        17.6683 
 438   0.0000       0.651388        17.7252 
 439   0.0000       0.652491        17.7552 
 440   0.0000       0.657165        17.8824 
 441   0.0000       0.658229        17.9113 
 442   0.0000       0.659455        17.9447 
 443   0.0000       0.663011        18.0414 
 444   0.0000       0.664038        18.0694 
 445   0.0000       0.666319        18.1315 
 446   0.0000       0.668383        18.1876 
 447   0.0000       0.670463        18.2442 
 448   0.0000       0.671119        18.2621 
 449   0.0000       0.674358        18.3502 
 450   0.0000       0.676114        18.3980 
 451   0.0000       0.677901        18.4466 
 452   0.0000       0.679386        18.4870 
 453   0.0000       0.681663        18.5490 
 454   0.0000       0.684344        18.6219 
 455   0.0000       0.687867        18.7178 
 456   0.0000       0.689485        18.7618 
 457   0.0000       0.691189        18.8082 
 458   0.0000       0.692596        18.8465 
 459   0.0000       0.692994        18.8573 
 460   0.0000       0.694075        18.8867 
 461   0.0000       0.697457        18.9788 
 462   0.0000       0.698217        18.9995 
 463   0.0000       0.699379        19.0311 
 464   0.0000       0.703364        19.1395 
 465   0.0000       0.703855        19.1529 
 466   0.0000       0.704018        19.1573 
 467   0.0000       0.705901        19.2085 
 468   0.0000       0.706998        19.2384 
 469   0.0000       0.708156        19.2699 
 470   0.0000       0.709691        19.3117 
 471   0.0000       0.711180        19.3522 
 472   0.0000       0.713722        19.4214 
 473   0.0000       0.715306        19.4645 
 474   0.0000       0.716022        19.4840 
 475   0.0000       0.718875        19.5616 
 476   0.0000       0.720455        19.6046 
 477   0.0000       0.722077        19.6487 
 478   0.0000       0.724442        19.7131 
 479   0.0000       0.726334        19.7646 
 480   0.0000       0.729022        19.8377 
 481   0.0000       0.730699        19.8833 
 482   0.0000       0.731502        19.9052 
 483   0.0000       0.732720        19.9383 
 484   0.0000       0.733928        19.9712 
 485   0.0000       0.735045        20.0016 
 486   0.0000       0.737951        20.0807 
 487   0.0000       0.738852        20.1052 
 488   0.0000       0.741691        20.1825 
 489   0.0000       0.745814        20.2946 
 490   0.0000       0.747884        20.3509 
 491   0.0000       0.749677        20.3998 
 492   0.0000       0.749921        20.4064 
 493   0.0000       0.753896        20.5146 
 494   0.0000       0.755489        20.5579 
 495   0.0000       0.756757        20.5924 
 496   0.0000       0.757597        20.6153 
 497   0.0000       0.759099        20.6561 
 498   0.0000       0.761016        20.7083 
 499   0.0000       0.762771        20.7561 
 500   0.0000       0.763635        20.7796 
 501   0.0000       0.764087        20.7919 
 502   0.0000       0.767441        20.8831 
 503   0.0000       0.769351        20.9351 
 504   0.0000       0.770513        20.9667 
 505   0.0000       0.772715        21.0266 
 506   0.0000       0.775218        21.0948 
 507   0.0000       0.777901        21.1678 
 508   0.0000       0.781411        21.2633 
 509   0.0000       0.782238        21.2858 
 510   0.0000       0.783945        21.3322 
 511   0.0000       0.784352        21.3433 
 512   0.0000       0.786314        21.3967 
 513   0.0000       0.787596        21.4316 
 514   0.0000       0.787829        21.4379 
 515   0.0000       0.789765        21.4906 
 516   0.0000       0.793947        21.6044 
 517   0.0000       0.795823        21.6554 
 518   0.0000       0.797046        21.6887 
 519   0.0000       0.798853        21.7379 
 520   0.0000       0.801299        21.8044 
 521   0.0000       0.802119        21.8268 
 522   0.0000       0.802989        21.8504 
 523   0.0000       0.806677        21.9508 
 524   0.0000       0.808527        22.0011 
 525   0.0000       0.811570        22.0839 
 526   0.0000       0.812481        22.1087 
 527   0.0000       0.813007        22.1231 
 528   0.0000       0.814256        22.1570 
 529   0.0000       0.816258        22.2115 
 530   0.0000       0.818882        22.2829 
 531   0.0000       0.819983        22.3129 
 532   0.0000       0.821535        22.3551 
 533   0.0000       0.823391        22.4056 
 534   0.0000       0.827535        22.5184 
 535   0.0000       0.828631        22.5482 
 536   0.0000       0.831946        22.6384 
 537   0.0000       0.833112        22.6701 
 538   0.0000       0.836629        22.7658 
 539   0.0000       0.839281        22.8380 
 540   0.0000       0.841414        22.8960 
 541   0.0000       0.843440        22.9512 
 542   0.0000       0.847017        23.0485 
 543   0.0000       0.847568        23.0635 
 544   0.0000       0.849051        23.1039 
 545   0.0000       0.851386        23.1674 
 546   0.0000       0.854359        23.2483 
 547   0.0000       0.855537        23.2803 
 548   0.0000       0.857691        23.3390 
 549   0.0000       0.862085        23.4585 
 550   0.0000       0.864169        23.5152 
 551   0.0000       0.866180        23.5700 
 552   0.0000       0.867051        23.5936 
 553   0.0000       0.870411        23.6851 
 554   0.0000       0.871059        23.7027 
 555   0.0000       0.873143        23.7594 
 556   0.0000       0.873791        23.7771 
 557   0.0000       0.878351        23.9011 
 558   0.0000       0.880204        23.9516 
 559   0.0000       0.880819        23.9683 
 560   0.0000       0.884537        24.0695 
 561   0.0000       0.887018        24.1370 
 562   0.0000       0.887963        24.1627 
 563   0.0000       0.892710        24.2919 
 564   0.0000       0.893282        24.3074 
 565   0.0000       0.896130        24.3849 
 566   0.0000       0.898486        24.4491 
 567   0.0000       0.901542        24.5322 
 568   0.0000       0.904500        24.6127 
 569   0.0000       0.907344        24.6901 
 570   0.0000       0.910570        24.7779 
 571   0.0000       0.913955        24.8700 
 572   0.0000       0.916954        24.9516 
 573   0.0000       0.918631        24.9972 
 574   0.0000       0.922445        25.1010 
 575   0.0000       0.924586        25.1593 
 576   0.0000       0.926064        25.1995 
 577   0.0000       0.928078        25.2543 
 578   0.0000       0.931964        25.3600 
 579   0.0000       0.933572        25.4038 
 580   0.0000       0.936365        25.4798 
 581   0.0000       0.937572        25.5126 
 582   0.0000       0.941129        25.6094 
 583   0.0000       0.942985        25.6599 
 584   0.0000       0.947412        25.7804 
 585   0.0000       0.951859        25.9014 
 586   0.0000       0.953351        25.9420 
 587   0.0000       0.953675        25.9508 
 588   0.0000       0.957097        26.0439 
 589   0.0000       0.960132        26.1265 
 590   0.0000       0.963400        26.2155 
 591   0.0000       0.966402        26.2971 
 592   0.0000       0.969374        26.3780 
 593   0.0000       0.970632        26.4122 
 594   0.0000       0.973927        26.5019 
 595   0.0000       0.975093        26.5336 
 596   0.0000       0.977726        26.6053 
 597   0.0000       0.981200        26.6998 
 598   0.0000       0.983471        26.7616 
 599   0.0000       0.984341        26.7853 
 600   0.0000       0.987676        26.8760 
 601   0.0000       0.989608        26.9286 
 602   0.0000       0.991281        26.9741 
 603   0.0000       0.995745        27.0956 
 604   0.0000       0.998690        27.1757 
 605   0.0000       1.001220        27.2446 
 606   0.0000       1.004318        27.3289 
 607   0.0000       1.005913        27.3723 
 608   0.0000       1.007189        27.4070 
 609   0.0000       1.010732        27.5034 
 610   0.0000       1.014199        27.5978 
 611   0.0000       1.015893        27.6439 
 612   0.0000       1.019263        27.7356 
 613   0.0000       1.021047        27.7841 
 614   0.0000       1.022933        27.8354 
 615   0.0000       1.027498        27.9596 
 616   0.0000       1.030027        28.0285 
 617   0.0000       1.030264        28.0349 
 618   0.0000       1.033555        28.1245 
 619   0.0000       1.036404        28.2020 
 620   0.0000       1.039724        28.2923 
 621   0.0000       1.043009        28.3817 
 622   0.0000       1.045422        28.4474 
 623   0.0000       1.047686        28.5090 
 624   0.0000       1.049972        28.5712 
 625   0.0000       1.052374        28.6366 
 626   0.0000       1.053132        28.6572 
 627   0.0000       1.057763        28.7832 
 628   0.0000       1.062772        28.9195 
 629   0.0000       1.067750        29.0549 
 630   0.0000       1.069377        29.0992 
 631   0.0000       1.072308        29.1790 
 632   0.0000       1.074614        29.2417 
 633   0.0000       1.078371        29.3440 
 634   0.0000       1.081500        29.4291 
 635   0.0000       1.082686        29.4614 
 636   0.0000       1.086916        29.5765 
 637   0.0000       1.089100        29.6359 
 638   0.0000       1.091454        29.7000 
 639   0.0000       1.094935        29.7947 
 640   0.0000       1.099974        29.9318 
 641   0.0000       1.101304        29.9680 
 642   0.0000       1.104146        30.0453 
 643   0.0000       1.105615        30.0853 
 644   0.0000       1.113088        30.2887 
 645   0.0000       1.114477        30.3265 
 646   0.0000       1.118678        30.4408 
 647   0.0000       1.121557        30.5191 
 648   0.0000       1.123940        30.5840 
 649   0.0000       1.127586        30.6832 
 650   0.0000       1.130311        30.7573 
 651   0.0000       1.132151        30.8074 
 652   0.0000       1.138516        30.9806 
 653   0.0000       1.140292        31.0289 
 654   0.0000       1.142578        31.0911 
 655   0.0000       1.145386        31.1675 
 656   0.0000       1.149060        31.2675 
 657   0.0000       1.151600        31.3366 
 658   0.0000       1.156949        31.4822 
 659   0.0000       1.159086        31.5403 
 660   0.0000       1.164849        31.6972 
 661   0.0000       1.174952        31.9721 
 662   0.0000       1.177553        32.0428 
 663   0.0000       1.181305        32.1449 
 664   0.0000       1.181850        32.1598 
 665   0.0000       1.185906        32.2701 
 666   0.0000       1.188778        32.3483 
 667   0.0000       1.190827        32.4040 
 668   0.0000       1.192977        32.4626 
 669   0.0000       1.197389        32.5826 
 670   0.0000       1.197741        32.5922 
 671   0.0000       1.200099        32.6564 
 672   0.0000       1.204966        32.7888 
 673   0.0000       1.209257        32.9056 
 674   0.0000       1.210762        32.9465 
 675   0.0000       1.214697        33.0536 
 676   0.0000       1.218650        33.1611 
 677   0.0000       1.224439        33.3187 
 678   0.0000       1.226535        33.3757 
 679   0.0000       1.229111        33.4458 
 680   0.0000       1.234516        33.5929 
 681   0.0000       1.241503        33.7830 
 682   0.0000       1.248825        33.9823 
 683   0.0000       1.251265        34.0487 
 684   0.0000       1.255371        34.1604 
 685   0.0000       1.256673        34.1958 
 686   0.0000       1.258279        34.2395 
 687   0.0000       1.262968        34.3671 
 688   0.0000       1.269333        34.5403 
 689   0.0000       1.269685        34.5499 
 690   0.0000       1.275151        34.6986 
 691   0.0000       1.275795        34.7161 
 692   0.0000       1.278086        34.7785 
 693   0.0000       1.284940        34.9650 
 694   0.0000       1.286498        35.0074 
 695   0.0000       1.289660        35.0934 
 696   0.0000       1.294435        35.2234 
 697   0.0000       1.296771        35.2869 
 698   0.0000       1.298857        35.3437 
[...]
      dz2     :     0.003971  d :     0.030304
      dxz     :     0.002832
      dyz     :     0.006954
      dx2y2   :     0.008668
      dxy     :     0.007879
 51 H s       :     0.680236  s :     0.680236
      pz      :     0.071784  p :     0.267801
      px      :     0.083889
      py      :     0.112128
      dz2     :     0.003863  d :     0.030208
      dxz     :     0.003485
      dyz     :     0.006086
      dx2y2   :     0.008652
      dxy     :     0.008121
 52 H s       :     0.691096  s :     0.691096
      pz      :     0.071127  p :     0.264643
      px      :     0.085672
      py      :     0.107844
      dz2     :     0.003508  d :     0.030138
      dxz     :     0.003286
      dyz     :     0.006131
      dx2y2   :     0.008921
      dxy     :     0.008292
 53 H s       :     0.689324  s :     0.689324
      pz      :     0.120482  p :     0.263161
      px      :     0.071857
      py      :     0.070822
      dz2     :     0.010910  d :     0.030187
      dxz     :     0.009423
      dyz     :     0.008884
      dx2y2   :     0.000258
      dxy     :     0.000712
 54 H s       :     0.676200  s :     0.676200
      pz      :     0.078811  p :     0.267119
      px      :     0.082609
      py      :     0.105699
      dz2     :     0.003583  d :     0.030302
      dxz     :     0.002815
      dyz     :     0.006486
      dx2y2   :     0.008990
      dxy     :     0.008428
 55 H s       :     0.670095  s :     0.670095
      pz      :     0.094465  p :     0.345632
      px      :     0.166987
      py      :     0.084180
      dz2     :     0.006375  d :     0.030325
      dxz     :     0.008346
      dyz     :     0.002383
      dx2y2   :     0.005819
      dxy     :     0.007401
 56 H s       :     0.663870  s :     0.663870
      pz      :     0.073349  p :     0.285410
      px      :     0.094419
      py      :     0.117642
      dz2     :     0.003683  d :     0.030587
      dxz     :     0.002772
      dyz     :     0.006878
      dx2y2   :     0.008970
      dxy     :     0.008283
 57 C s       :     2.628320  s :     2.628320
      pz      :     0.747959  p :     2.596599
      px      :     0.918168
      py      :     0.930473
      dz2     :     0.093501  d :     0.956368
      dxz     :     0.143952
      dyz     :     0.139409
      dx2y2   :     0.304474
      dxy     :     0.275031
      f0      :     0.004248  f :     0.056552
      f+1     :     0.004893
      f-1     :     0.004294
      f+2     :     0.006219
      f-2     :     0.007148
      f+3     :     0.010670
      f-3     :     0.019080
 58 C s       :     2.642355  s :     2.642355
      pz      :     0.730105  p :     2.569543
      px      :     0.939878
      py      :     0.899560
      dz2     :     0.061565  d :     0.701205
      dxz     :     0.133670
      dyz     :     0.062048
      dx2y2   :     0.218956
      dxy     :     0.224967
      f0      :     0.003251  f :     0.043020
      f+1     :     0.004337
      f-1     :     0.002558
      f+2     :     0.005473
      f-2     :     0.004589
      f+3     :     0.008887
      f-3     :     0.013923
 59 C s       :     2.651916  s :     2.651916
      pz      :     0.745724  p :     2.606706
      px      :     0.943312
      py      :     0.917670
      dz2     :     0.065698  d :     0.682179
      dxz     :     0.111640
      dyz     :     0.072327
      dx2y2   :     0.175991
      dxy     :     0.256523
      f0      :     0.002991  f :     0.043306
      f+1     :     0.003790
      f-1     :     0.003545
      f+2     :     0.007055
      f-2     :     0.003342
      f+3     :     0.008673
      f-3     :     0.013910
 60 C s       :     2.653816  s :     2.653816
      pz      :     0.734443  p :     2.596663
      px      :     0.921658
      py      :     0.940563
      dz2     :     0.071566  d :     0.687793
      dxz     :     0.047191
      dyz     :     0.136439
      dx2y2   :     0.264016
      dxy     :     0.168581
      f0      :     0.002658  f :     0.043021
      f+1     :     0.003581
      f-1     :     0.004099
      f+2     :     0.003373
      f-2     :     0.007142
      f+3     :     0.008747
      f-3     :     0.013420
 61 C s       :     2.650129  s :     2.650129
      pz      :     0.739158  p :     2.602602
      px      :     0.950004
      py      :     0.913440
      dz2     :     0.058279  d :     0.680580
      dxz     :     0.120429
      dyz     :     0.063264
      dx2y2   :     0.209934
      dxy     :     0.228674
      f0      :     0.003218  f :     0.043335
      f+1     :     0.004249
      f-1     :     0.002696
      f+2     :     0.005496
      f-2     :     0.004422
      f+3     :     0.008922
      f-3     :     0.014333
 62 C s       :     2.640326  s :     2.640326
      pz      :     0.720316  p :     2.569638
      px      :     0.939712
      py      :     0.909610
      dz2     :     0.072117  d :     0.714255
      dxz     :     0.121130
      dyz     :     0.071258
      dx2y2   :     0.189655
      dxy     :     0.260095
      f0      :     0.002856  f :     0.042957
      f+1     :     0.003820
      f-1     :     0.003597
      f+2     :     0.006829
      f-2     :     0.003361
      f+3     :     0.008615
      f-3     :     0.013880
 63 H s       :     0.694429  s :     0.694429
      pz      :     0.075790  p :     0.265988
      px      :     0.082042
      py      :     0.108156
      dz2     :     0.003367  d :     0.029437
      dxz     :     0.002079
      dyz     :     0.006944
      dx2y2   :     0.008732
      dxy     :     0.008315
 64 H s       :     0.706286  s :     0.706286
      pz      :     0.076071  p :     0.262339
      px      :     0.084793
      py      :     0.101475
      dz2     :     0.003075  d :     0.029247
      dxz     :     0.003156
      dyz     :     0.005540
      dx2y2   :     0.008918
      dxy     :     0.008558
 65 H s       :     0.704524  s :     0.704524
      pz      :     0.076818  p :     0.260827
      px      :     0.074186
      py      :     0.109823
      dz2     :     0.003319  d :     0.029275
      dxz     :     0.001970
      dyz     :     0.006969
      dx2y2   :     0.008533
      dxy     :     0.008484
 66 H s       :     0.687224  s :     0.687224
      pz      :     0.079233  p :     0.324565
      px      :     0.131655
      py      :     0.113678
      dz2     :     0.003022  d :     0.029309
      dxz     :     0.002991
      dyz     :     0.005488
      dx2y2   :     0.009191
      dxy     :     0.008616
 67 H s       :     0.706854  s :     0.706854
      pz      :     0.073878  p :     0.262218
      px      :     0.121655
      py      :     0.066685
      dz2     :     0.002896  d :     0.029201
      dxz     :     0.008159
      dyz     :     0.000156
      dx2y2   :     0.008809
      dxy     :     0.009181


                      *****************************
                      * MAYER POPULATION ANALYSIS *
                      *****************************

  NA   - Mulliken gross atomic population
  ZA   - Total nuclear charge
  QA   - Mulliken gross atomic charge
  VA   - Mayer's total valence
  BVA  - Mayer's bonded valence
  FA   - Mayer's free valence

  ATOM       NA         ZA         QA         VA         BVA        FA
  0 Ru    17.8350    16.0000    -1.8350     4.8850     4.8850    -0.0000
  1 Cl    17.4760    17.0000    -0.4760     0.9372     0.9372     0.0000
  2 Cl    17.4807    17.0000    -0.4807     0.9100     0.9100    -0.0000
  3 P     13.1552    15.0000     1.8448     1.4368     1.4368     0.0000
  4 C      5.0219     6.0000     0.9781     2.4707     2.4707    -0.0000
  5 C      5.5205     6.0000     0.4795     1.4851     1.4851     0.0000
  6 C      7.2918     6.0000    -1.2918     2.7683     2.7683    -0.0000
  7 C      6.9613     6.0000    -0.9613     3.1729     3.1729    -0.0000
  8 C      6.8677     6.0000    -0.8677     3.2907     3.2907    -0.0000
  9 C      7.0819     6.0000    -1.0819     2.9571     2.9571    -0.0000
 10 C      6.6669     6.0000    -0.6669     2.1234     2.1234    -0.0000
 11 C      5.6311     6.0000     0.3689     1.4405     1.4405     0.0000
 12 C      6.8875     6.0000    -0.8875     2.3243     2.3243     0.0000
 13 C      7.0887     6.0000    -1.0887     3.2245     3.2245     0.0000
 14 C      6.7826     6.0000    -0.7826     3.2780     3.2780     0.0000
 15 C      7.0449     6.0000    -1.0449     3.1380     3.1380    -0.0000
 16 C      6.5911     6.0000    -0.5911     2.7690     2.7690    -0.0000
 17 C      5.4048     6.0000     0.5952     1.6125     1.6125    -0.0000
 18 C      6.7451     6.0000    -0.7451     2.3637     2.3637    -0.0000
 19 C      7.0376     6.0000    -1.0376     3.0084     3.0084    -0.0000
 20 C      6.8030     6.0000    -0.8030     3.2986     3.2986    -0.0000
 21 C      6.9825     6.0000    -0.9825     3.2227     3.2227     0.0000
 22 C      7.0525     6.0000    -1.0525     3.0272     3.0272    -0.0000
 23 H      1.1530     1.0000    -0.1530     0.9651     0.9651    -0.0000
 24 H      0.1355     1.0000     0.8645     0.0980     0.0980     0.0000
 25 H      0.6917     1.0000     0.3083     1.0204     1.0204    -0.0000
 26 H      0.5707     1.0000     0.4293     0.9247     0.9247    -0.0000
 27 H      0.5769     1.0000     0.4231     0.9163     0.9163     0.0000
 28 H      0.6449     1.0000     0.3551     0.9605     0.9605     0.0000
 29 H      0.6963     1.0000     0.3037     1.0289     1.0289     0.0000
 30 H      0.5714     1.0000     0.4286     0.9221     0.9221     0.0000
 31 H      0.5742     1.0000     0.4258     0.9271     0.9271     0.0000
 32 H      0.6317     1.0000     0.3683     0.9554     0.9554    -0.0000
 33 H      0.8259     1.0000     0.1741     1.2411     1.2411    -0.0000
 34 H      0.6969     1.0000     0.3031     0.9817     0.9817    -0.0000
 35 H      0.0685     1.0000     0.9315    -0.1050    -0.1050    -0.0000
 36 H      0.8185     1.0000     0.1815     1.2838     1.2838     0.0000
 37 H      0.7283     1.0000     0.2717     0.9889     0.9889    -0.0000
 38 H      0.6339     1.0000     0.3661     0.9717     0.9717     0.0000
 39 H      0.6081     1.0000     0.3919     0.9665     0.9665     0.0000
 40 H      0.5978     1.0000     0.4022     0.9478     0.9478     0.0000
 41 H      0.7124     1.0000     0.2876     1.0338     1.0338    -0.0000
 42 H      0.6215     1.0000     0.3785     0.9508     0.9508    -0.0000
 43 H      0.6030     1.0000     0.3970     0.9697     0.9697    -0.0000
 44 H      0.6698     1.0000     0.3302     0.9332     0.9332    -0.0000
 45 H      0.9340     1.0000     0.0660     1.1919     1.1919    -0.0000
 46 H      0.2734     1.0000     0.7266     0.3614     0.3614     0.0000
 47 H      0.7499     1.0000     0.2501     1.0510     1.0510     0.0000
 48 H      0.7935     1.0000     0.2065     1.2718     1.2718    -0.0000
 49 H      0.6097     1.0000     0.3903     0.9876     0.9876    -0.0000
 50 H      0.5784     1.0000     0.4216     0.9108     0.9108     0.0000
 51 H      0.6968     1.0000     0.3032     1.0172     1.0172     0.0000
 52 H      0.6022     1.0000     0.3978     0.9523     0.9523     0.0000
 53 H      0.6191     1.0000     0.3809     0.9802     0.9802     0.0000
 54 H      0.6341     1.0000     0.3659     0.9578     0.9578    -0.0000
 55 H      0.5942     1.0000     0.4058     0.7629     0.7629    -0.0000
 56 H      0.6675     1.0000     0.3325     0.9961     0.9961    -0.0000
 57 C      5.0559     6.0000     0.9441     0.4723     0.4723     0.0000
 58 C      6.3643     6.0000    -0.3643     3.0016     3.0016    -0.0000
 59 C      6.3618     6.0000    -0.3618     3.1866     3.1866    -0.0000
 60 C      6.1210     6.0000    -0.1210     3.0464     3.0464     0.0000
 61 C      6.4426     6.0000    -0.4426     3.4900     3.4900    -0.0000
 62 C      6.1980     6.0000    -0.1980     2.9159     2.9159     0.0000
 63 H      0.8716     1.0000     0.1284     1.0221     1.0221    -0.0000
 64 H      0.8442     1.0000     0.1558     0.9636     0.9636    -0.0000
 65 H      0.8371     1.0000     0.1629     0.9670     0.9670    -0.0000
 66 H      1.0706     1.0000    -0.0706     1.0045     1.0045    -0.0000
 67 H      0.8384     1.0000     0.1616     0.9416     0.9416     0.0000

  Mayer bond orders larger than 0.100000
B(  0-Ru,  1-Cl) :   1.7088 B(  0-Ru,  2-Cl) :   1.6409 B(  0-Ru,  3-P ) :  -0.3847 
B(  0-Ru,  4-C ) :   1.5322 B(  0-Ru,  5-C ) :   0.2363 B(  0-Ru, 11-C ) :   0.2241 
B(  0-Ru, 22-C ) :   0.2175 B(  0-Ru, 24-H ) :  -0.1094 B(  0-Ru, 57-C ) :  -0.3617 
B(  0-Ru, 62-C ) :   0.1481 B(  1-Cl,  3-P ) :  -0.6248 B(  1-Cl, 11-C ) :   0.1078 
B(  1-Cl, 36-H ) :   0.1597 B(  1-Cl, 57-C ) :  -0.2305 B(  2-Cl,  3-P ) :  -0.5388 
B(  2-Cl,  4-C ) :  -0.2602 B(  2-Cl,  6-C ) :   0.1480 B(  3-P ,  5-C ) :   0.8541 
B(  3-P ,  6-C ) :   0.1469 B(  3-P , 10-C ) :  -0.2717 B(  3-P , 11-C ) :   0.9967 
B(  3-P , 12-C ) :   0.2981 B(  3-P , 17-C ) :   0.7197 B(  3-P , 23-H ) :  -0.1259 
B(  3-P , 24-H ) :   0.2296 B(  3-P , 26-H ) :   0.1194 B(  3-P , 46-H ) :   0.1258 
B(  3-P , 48-H ) :   0.1078 B(  3-P , 55-H ) :   0.1215 B(  4-C , 23-H ) :   0.9902 
B(  4-C , 57-C ) :   0.3375 B(  4-C , 58-C ) :  -0.2372 B(  4-C , 59-C ) :  -0.1038 
B(  4-C , 61-C ) :  -0.1140 B(  4-C , 62-C ) :   0.1036 B(  5-C ,  6-C ) :   0.1057 
B(  5-C ,  7-C ) :   0.1449 B(  5-C ,  8-C ) :   0.1505 B(  5-C ,  9-C ) :   0.1362 
B(  5-C , 11-C ) :   0.1197 B(  5-C , 18-C ) :   0.2295 B(  5-C , 24-H ) :   0.3296 
B(  5-C , 25-H ) :  -0.1632 B(  5-C , 26-H ) :  -0.1363 B(  5-C , 33-H ) :  -0.2876 
B(  5-C , 34-H ) :  -0.2832 B(  6-C ,  7-C ) :   0.5487 B(  6-C ,  8-C ) :   0.1303 
B(  6-C , 10-C ) :  -0.1233 B(  6-C , 17-C ) :   0.2890 B(  6-C , 24-H ) :  -0.1096 
B(  6-C , 25-H ) :   1.0489 B(  6-C , 26-H ) :   0.8164 B(  6-C , 28-H ) :  -0.1152 
B(  7-C ,  8-C ) :   0.5217 B(  7-C ,  9-C ) :   0.1320 B(  7-C , 26-H ) :   0.1217 
B(  7-C , 27-H ) :   0.9099 B(  7-C , 28-H ) :   1.0111 B(  8-C ,  9-C ) :   0.5220 
B(  8-C , 10-C ) :   0.1301 B(  8-C , 29-H ) :   1.0422 B(  8-C , 30-H ) :   0.9229 
B(  9-C , 10-C ) :   0.1484 B(  9-C , 31-H ) :   0.8761 B(  9-C , 32-H ) :   1.0358 
B(  9-C , 33-H ) :   0.3163 B( 10-C , 17-C ) :   0.1162 B( 10-C , 24-H ) :  -0.1049 
B( 10-C , 32-H ) :  -0.1761 B( 10-C , 33-H ) :   1.1119 B( 10-C , 34-H ) :   1.1882 
B( 11-C , 12-C ) :  -0.3644 B( 11-C , 13-C ) :   0.1663 B( 11-C , 15-C ) :   0.1126 
B( 11-C , 16-C ) :   0.4758 B( 11-C , 17-C ) :   0.1789 B( 11-C , 35-H ) :   0.1276 
B( 11-C , 36-H ) :  -0.2109 B( 11-C , 37-H ) :  -0.3054 B( 11-C , 44-H ) :  -0.2202 
B( 11-C , 45-H ) :  -0.2596 B( 12-C , 13-C ) :   0.4616 B( 12-C , 14-C ) :   0.1440 
B( 12-C , 16-C ) :  -0.2412 B( 12-C , 36-H ) :   0.9330 B( 12-C , 37-H ) :   1.2299 
B( 12-C , 38-H ) :  -0.1431 B( 13-C , 14-C ) :   0.5397 B( 13-C , 36-H ) :   0.2043 
B( 13-C , 38-H ) :   1.0177 B( 13-C , 39-H ) :   0.9475 B( 14-C , 15-C ) :   0.5501 
B( 14-C , 40-H ) :   0.9392 B( 14-C , 41-H ) :   1.0472 B( 15-C , 16-C ) :   0.4869 
B( 15-C , 42-H ) :   0.9769 B( 15-C , 43-H ) :   0.9390 B( 15-C , 45-H ) :   0.1606 
B( 16-C , 35-H ) :  -0.1756 B( 16-C , 44-H ) :   1.1782 B( 16-C , 45-H ) :   1.1005 
B( 17-C , 18-C ) :   0.1867 B( 17-C , 20-C ) :   0.1019 B( 17-C , 21-C ) :   0.1193 
B( 17-C , 22-C ) :   0.1400 B( 17-C , 46-H ) :   0.5887 B( 17-C , 47-H ) :  -0.2395 
B( 17-C , 48-H ) :  -0.1801 B( 17-C , 56-H ) :  -0.2646 B( 18-C , 19-C ) :   0.2871 
B( 18-C , 20-C ) :   0.1915 B( 18-C , 46-H ) :  -0.1934 B( 18-C , 47-H ) :   1.0886 
B( 18-C , 48-H ) :   1.0809 B( 18-C , 50-H ) :  -0.1345 B( 19-C , 20-C ) :   0.5303 
B( 19-C , 21-C ) :   0.1064 B( 19-C , 48-H ) :   0.2551 B( 19-C , 49-H ) :   0.9390 
B( 19-C , 50-H ) :   0.9604 B( 20-C , 21-C ) :   0.5359 B( 20-C , 22-C ) :   0.1402 
B( 20-C , 51-H ) :   1.0286 B( 20-C , 52-H ) :   0.9338 B( 21-C , 22-C ) :   0.6044 
B( 21-C , 53-H ) :   0.9498 B( 21-C , 54-H ) :   1.0061 B( 21-C , 55-H ) :   0.1026 
B( 22-C , 54-H ) :  -0.1076 B( 22-C , 55-H ) :   0.7291 B( 22-C , 56-H ) :   1.2046 
B( 25-H , 26-H ) :   0.1052 B( 33-H , 34-H ) :   0.1161 B( 36-H , 37-H ) :   0.1116 
B( 47-H , 48-H ) :   0.1062 B( 57-C , 58-C ) :   1.0859 B( 57-C , 62-C ) :   0.2262 
B( 57-C , 63-H ) :  -0.2041 B( 57-C , 66-H ) :  -0.4526 B( 58-C , 59-C ) :   1.1633 
B( 58-C , 62-C ) :  -0.1634 B( 58-C , 63-H ) :   1.1136 B( 59-C , 60-C ) :   1.0438 
B( 59-C , 64-H ) :   1.0841 B( 60-C , 61-C ) :   1.0337 B( 60-C , 67-H ) :   1.0775 
B( 61-C , 62-C ) :   1.4579 B( 61-C , 65-H ) :   1.0610 B( 62-C , 66-H ) :   1.2410 


-------
TIMINGS
-------

Total SCF time: 0 days 2 hours 33 min 22 sec 

Total time                  ....    9202.691 sec
Sum of individual times     ....    9196.248 sec  ( 99.9%)

Fock matrix formation       ....    9168.325 sec  ( 99.6%)
  XC integration            ....      57.195 sec  (  0.6% of F)
    Basis function eval.    ....       4.737 sec  (  8.3% of XC)
    Density eval.           ....      24.793 sec  ( 43.3% of XC)
    XC-Functional eval.     ....       0.247 sec  (  0.4% of XC)
    XC-Potential eval.      ....      19.783 sec  ( 34.6% of XC)
Diagonalization             ....       8.105 sec  (  0.1%)
Density matrix formation    ....       0.614 sec  (  0.0%)
Population analysis         ....       1.097 sec  (  0.0%)
Initial guess               ....       4.627 sec  (  0.1%)
Orbital Transformation      ....       0.000 sec  (  0.0%)
Orbital Orthonormalization  ....       0.000 sec  (  0.0%)
DIIS solution               ....      11.212 sec  (  0.1%)
Grid generation             ....       2.268 sec  (  0.0%)

-------------------------   --------------------
FINAL SINGLE POINT ENERGY     -2332.742002943752
-------------------------   --------------------


                            ***************************************
                            *     ORCA property calculations      *
                            ***************************************

                                    ---------------------
                                    Active property flags
                                    ---------------------
   (+) Dipole Moment


------------------------------------------------------------------------------
                       ORCA ELECTRIC PROPERTIES CALCULATION
------------------------------------------------------------------------------

Dipole Moment Calculation                       ... on
Quadrupole Moment Calculation                   ... off
Polarizability Calculation                      ... off
GBWName                                         ... MOR13_ed24.gbw
Electron density file                           ... MOR13_ed24.scfp
The origin for moment calculation is the CENTER OF MASS  = ( 0.178495, -0.123193 -0.110374)

-------------
DIPOLE MOMENT
-------------
                                X             Y             Z
Electronic contribution:     94.59638     -73.83325     -66.26864
Nuclear contribution   :    -95.45400      75.19378      67.48059
                        -----------------------------------------
Total Dipole Moment    :     -0.85762       1.36052       1.21195
                        -----------------------------------------
Magnitude (a.u.)       :      2.01379
Magnitude (Debye)      :      5.11864



--------------------
Rotational spectrum 
--------------------
 
Rotational constants in cm-1:     0.004948     0.003136     0.003087 
Rotational constants in MHz :   148.341837    94.004802    92.554473 

 Dipole components along the rotational axes: 
x,y,z [a.u.] :    -0.895252     1.414949    -1.118833 
x,y,z [Debye]:    -2.275551     3.596515    -2.843848 

 

Timings for individual modules:

Sum of individual times         ...     9213.338 sec (= 153.556 min)
GTO integral calculation        ...       10.134 sec (=   0.169 min)   0.1 %
SCF iterations                  ...     9203.204 sec (= 153.387 min)  99.9 %
                             ****ORCA TERMINATED NORMALLY****
TOTAL RUN TIME: 0 days 2 hours 33 minutes 34 seconds 341 msec
