
                                 *****************
                                 * O   R   C   A *
                                 *****************

           --- An Ab Initio, DFT and Semiempirical electronic structure package ---

                  #######################################################
                  #                        -***-                        #
                  #          Department of theory and spectroscopy      #
                  #               Directorship: Frank Neese             #
                  #        Max Planck Institute fuer Kohlenforschung    #
                  #                Kaiser Wilhelm Platz 1               #
                  #                 D-45470 Muelheim/Ruhr               #
                  #                      Germany                        #
                  #                                                     #
                  #                  All rights reserved                #
                  #                        -***-                        #
                  #######################################################


                         Program Version 4.2.0 -  RELEASE  -


 With contributions from (in alphabetic order):
   Daniel Aravena         : Magnetic Suceptibility
   Michael Atanasov       : Ab Initio Ligand Field Theory (pilot matlab implementation)
   Alexander A. Auer      : GIAO ZORA, VPT2
   Ute Becker             : Parallelization
   Giovanni Bistoni       : ED, misc. LED, open-shell LED, HFLED
   Martin Brehm           : Molecular dynamics
   Dmytro Bykov           : SCF Hessian
   Vijay G. Chilkuri      : MRCI spin determinant printing, contributions to CSF-ICE
   Dipayan Datta          : RHF DLPNO-CCSD density
   Achintya Kumar Dutta   : EOM-CC, STEOM-CC
   Dmitry Ganyushin       : Spin-Orbit,Spin-Spin,Magnetic field MRCI
   Miquel Garcia          : C-PCM Hessian, Gaussian charge scheme
   Yang Guo               : DLPNO-NEVPT2, CIM, IAO-localization
   Andreas Hansen         : Spin unrestricted coupled pair/coupled cluster methods
   Benjamin Helmich-Paris : CASSCF linear response (MC-RPA)
   Lee Huntington         : MR-EOM, pCC
   Robert Izsak           : Overlap fitted RIJCOSX, COSX-SCS-MP3, EOM
   Christian Kollmar      : KDIIS, OOCD, Brueckner-CCSD(T), CCSD density
   Simone Kossmann        : Meta GGA functionals, TD-DFT gradient, OOMP2, MP2 Hessian
   Martin Krupicka        : AUTO-CI
   Lucas Lang             : DCDCAS
   Dagmar Lenk            : GEPOL surface, SMD
   Dimitrios Liakos       : Extrapolation schemes; Compound Job, initial MDCI parallelization
   Dimitrios Manganas     : Further ROCIS development; embedding schemes
   Dimitrios Pantazis     : SARC Basis sets
   Taras Petrenko         : DFT Hessian,TD-DFT gradient, ASA, ECA, R-Raman, ABS, FL, XAS/XES, NRVS
   Peter Pinski           : DLPNO-MP2, DLPNO-MP2 Gradient
   Christoph Reimann      : Effective Core Potentials
   Marius Retegan         : Local ZFS, SOC
   Christoph Riplinger    : Optimizer, TS searches, QM/MM, DLPNO-CCSD(T), (RO)-DLPNO pert. Triples
   Tobias Risthaus        : Range-separated hybrids, TD-DFT gradient, RPA, STAB
   Michael Roemelt        : Original ROCIS implementation
   Masaaki Saitow         : Open-shell DLPNO-CCSD energy and density
   Barbara Sandhoefer     : DKH picture change effects
   Avijit Sen             : IP-ROCIS
   Kantharuban Sivalingam : CASSCF convergence, NEVPT2, FIC-MRCI
   Bernardo de Souza      : ESD, SOC TD-DFT
   Georgi Stoychev        : AutoAux, RI-MP2 NMR
   Willem Van den Heuvel  : Paramagnetic NMR
   Boris Wezisla          : Elementary symmetry handling
   Frank Wennmohs         : Technical directorship


 We gratefully acknowledge several colleagues who have allowed us to
 interface, adapt or use parts of their codes:
   Stefan Grimme, W. Hujo, H. Kruse,             : VdW corrections, initial TS optimization,
                  C. Bannwarth                     DFT functionals, gCP, sTDA/sTD-DF
   Ed Valeev, F. Pavosevic, A. Kumar             : LibInt (2-el integral package), F12 methods
   Garnet Chan, S. Sharma, J. Yang, R. Olivares  : DMRG
   Ulf Ekstrom                                   : XCFun DFT Library
   Mihaly Kallay                                 : mrcc  (arbitrary order and MRCC methods)
   Andreas Klamt, Michael Diedenhofen            : otool_cosmo (COSMO solvation model)
   Jiri Pittner, Ondrej Demel                    : Mk-CCSD
   Frank Weinhold                                : gennbo (NPA and NBO analysis)
   Christopher J. Cramer and Donald G. Truhlar   : smd solvation model
   Lars Goerigk                                  : TD-DFT with DH, B97 family of functionals
   V. Asgeirsson, H. Jonsson                     : NEB implementation
   FAccTs GmbH                                   : IRC, NEB, NEB-TS, Multilevel, MM, QM/MM, CI optimization
   S Lehtola, MJT Oliveira, MAL Marques          : LibXC Library


 Your calculation uses the libint2 library for the computation of 2-el integrals
 For citations please refer to: http://libint.valeyev.net

 Your ORCA version has been built with support for libXC version: 4.2.3
 For citations please refer to: https://tddft.org/programs/libxc/

 This ORCA versions uses:
   CBLAS   interface :  Fast vector & matrix operations
   LAPACKE interface :  Fast linear algebra routines
   SCALAPACK package :  Parallel linear algebra routines


Your calculation utilizes the DFT-NL dispersion correction.
Cite in your paper:
Vydrov, O. A.; Van Voorhis, T. J. Chem. Phys. 2010, 133, 244103
Hujo, W.; Grimme, S. J. Chem. Theory Comput. 2011, 7, 3866 
   

----- Orbital basis set information -----
Your calculation utilizes the basis: def2-TZVPPD
   F. Weigend and R. Ahlrichs, Phys. Chem. Chem. Phys. 7, 3297 (2005).
   D. Rappoport and F. Furche, J. Chem. Phys. 133 134105 (2010).

----- AuxJK basis set information -----
Your calculation utilizes the auxiliary basis: def2/JK
   H-Ba, Hf-Rn: F. Weigend, J. Comput. Chem. 29, 167 (2008).

cite the ECPs for Pd [Def2-ECP], I  [Def2-ECP] as follows:
Ce-Yb(ecp-28): M. Dolg, H. Stoll, H.Preuss, J. Chem. Phys., 1989, 90, 1730-1734.
Y-Cd(ecp-28), Hf-Hg(ecp-46): D. Andrae,U. Haeussermann, M. Dolg, H. Stoll, H. Preuss, Theor. Chim. Acta, 1990, 77, 123-141.
In-Sb(ecp-28), Tl-Bi(ecp-46): B. Metz, H. Stoll, M. Dolg, J. Chem. Phys., 2000, 113, 2563-2569.
Te-Xe(ecp-28), Po-Rn(ecp-46): K. A. Peterson, D. Figgen, E. Goll, H. Stoll, M. Dolg, J. Chem. Phys., 2003, 119, 11113-11123.
Rb(ecp-28), Cs(ecp-46): T. Leininger, A. Nicklass, W. Kuechle, H. Stoll, M. Dolg, A. Bergner, Chem. Phys. Lett., 1996, 255, 274-280.
Sr(ecp-28), Ba(ecp-46): M. Kaupp, P. V. Schleyer, H. Stoll and H. Preuss, J. Chem. Phys., 1991, 94, 1360-1366.
La(ecp-46): M. Dolg, H. Stoll, A. Savin, H. Preuss, Theor. Chim. Acta, 1989, 75, 173-194.
Lu(ecp-28): X. Cao, M. Dolg, J. Chem. Phys., 2001, 115, 7348-7355.

ECP parameters for Pd [Def2-ECP], I  [Def2-ECP] have been obtained from:
TURBOMOLE (7.0.2)

================================================================================
                                        WARNINGS
                       Please study these warnings very carefully!
================================================================================


INFO   : the flag for use of LIBINT has been found!

================================================================================
                                       INPUT FILE
================================================================================
NAME = MOR29_pr11.in
|  1> #
|  2> # MOR29_pr11 wB97M-V/Def2-TZVPPD
|  3> #
|  4> ! wb97m-v def2-tzvppd def2/jk grid4 nofinalgrid
|  5> 
|  6> *xyz 0 1
|  7> C       -1.039290   -2.639432    0.178033 
|  8> C       -2.178017   -3.305635   -0.258724 
|  9> C       -3.296391   -2.550827   -0.605540 
| 10> C       -3.231094   -1.166811   -0.503382 
| 11> H       -0.140242   -3.178187    0.457229 
| 12> H       -2.180740   -4.388297   -0.324253 
| 13> H       -4.206388   -3.031472   -0.950846 
| 14> H       -4.092575   -0.563880   -0.765153 
| 15> N       -0.970920   -1.306381    0.272680 
| 16> C       -2.050199   -0.559703   -0.062217 
| 17> C       -1.896627    0.903347    0.053727 
| 18> N       -0.715899    1.344389    0.547476 
| 19> C       -0.493208    2.660516    0.650101 
| 20> C       -2.657172    3.172580   -0.229603 
| 21> C       -1.435330    3.611046    0.276469 
| 22> H        0.481431    2.944320    1.031789 
| 23> H       -1.207232    4.666962    0.373432 
| 24> C       -2.888209    1.807210   -0.342538 
| 25> H       -3.826394    1.449184   -0.749672 
| 26> H       -3.416704    3.882938   -0.540755 
| 27> Pd       0.796966   -0.183618    0.920224 
| 28> C        2.296006    1.038742    1.594093 
| 29> H        1.829551    1.776866    2.255021 
| 30> H        2.734263    1.506656    0.710942 
| 31> H        3.050202    0.480142    2.149825 
| 32> C        2.162541   -1.690695    1.159536 
| 33> H        3.086547   -1.399047    0.660601 
| 34> H        1.744149   -2.568037    0.656862 
| 35> H        2.334771   -1.896294    2.218292 
| 36> I        1.451603    0.093477   -1.772045 
| 37> C        0.284011   -0.444486    2.913651 
| 38> H       -0.123661   -1.453796    3.016265 
| 39> H       -0.476481    0.304111    3.153737 
| 40> H        1.159721   -0.321172    3.551993 
| 41> *
| 42> 
| 43> %maxcore 5000
| 44> 
| 45> %pal
| 46> nprocs = 24
| 47> end
| 48> 
| 49> 
| 50>                          ****END OF INPUT****
================================================================================

                       ****************************
                       * Single Point Calculation *
                       ****************************

---------------------------------
CARTESIAN COORDINATES (ANGSTROEM)
---------------------------------
  C     -1.039290   -2.639432    0.178033
  C     -2.178017   -3.305635   -0.258724
  C     -3.296391   -2.550827   -0.605540
  C     -3.231094   -1.166811   -0.503382
  H     -0.140242   -3.178187    0.457229
  H     -2.180740   -4.388297   -0.324253
  H     -4.206388   -3.031472   -0.950846
  H     -4.092575   -0.563880   -0.765153
  N     -0.970920   -1.306381    0.272680
  C     -2.050199   -0.559703   -0.062217
  C     -1.896627    0.903347    0.053727
  N     -0.715899    1.344389    0.547476
  C     -0.493208    2.660516    0.650101
  C     -2.657172    3.172580   -0.229603
  C     -1.435330    3.611046    0.276469
  H      0.481431    2.944320    1.031789
  H     -1.207232    4.666962    0.373432
  C     -2.888209    1.807210   -0.342538
  H     -3.826394    1.449184   -0.749672
  H     -3.416704    3.882938   -0.540755
  Pd     0.796966   -0.183618    0.920224
  C      2.296006    1.038742    1.594093
  H      1.829551    1.776866    2.255021
  H      2.734263    1.506656    0.710942
  H      3.050202    0.480142    2.149825
  C      2.162541   -1.690695    1.159536
  H      3.086547   -1.399047    0.660601
  H      1.744149   -2.568037    0.656862
  H      2.334771   -1.896294    2.218292
  I      1.451603    0.093477   -1.772045
  C      0.284011   -0.444486    2.913651
  H     -0.123661   -1.453796    3.016265
  H     -0.476481    0.304111    3.153737
  H      1.159721   -0.321172    3.551993

----------------------------
CARTESIAN COORDINATES (A.U.)
----------------------------
  NO LB      ZA    FRAG     MASS         X           Y           Z
   0 C     6.0000    0    12.011   -1.963973   -4.987804    0.336434
   1 C     6.0000    0    12.011   -4.115856   -6.246745   -0.488918
   2 C     6.0000    0    12.011   -6.229276   -4.820364   -1.144305
   3 C     6.0000    0    12.011   -6.105883   -2.204953   -0.951254
   4 H     1.0000    0     1.008   -0.265019   -6.005903    0.864038
   5 H     1.0000    0     1.008   -4.121001   -8.292680   -0.612749
   6 H     1.0000    0     1.008   -7.948921   -5.728652   -1.796839
   7 H     1.0000    0     1.008   -7.733846   -1.065579   -1.445930
   8 N     7.0000    0    14.007   -1.834773   -2.468702    0.515291
   9 C     6.0000    0    12.011   -3.874315   -1.057685   -0.117573
  10 C     6.0000    0    12.011   -3.584106    1.707078    0.101529
  11 N     7.0000    0    14.007   -1.352853    2.540527    1.034580
  12 C     6.0000    0    12.011   -0.932028    5.027647    1.228513
  13 C     6.0000    0    12.011   -5.021327    5.995307   -0.433887
  14 C     6.0000    0    12.011   -2.712381    6.823888    0.522451
  15 H     1.0000    0     1.008    0.909773    5.563958    1.949799
  16 H     1.0000    0     1.008   -2.281338    8.819280    0.705684
  17 C     6.0000    0    12.011   -5.457924    3.415132   -0.647303
  18 H     1.0000    0     1.008   -7.230837    2.738561   -1.416675
  19 H     1.0000    0     1.008   -6.456635    7.337689   -1.021879
  20 Pd   18.0000*   0   106.400    1.506047   -0.346988    1.738971
  21 C     6.0000    0    12.011    4.338823    1.962938    3.012399
  22 H     1.0000    0     1.008    3.457350    3.357790    4.261372
  23 H     1.0000    0     1.008    5.167008    2.847167    1.343486
  24 H     1.0000    0     1.008    5.764046    0.907337    4.062580
  25 C     6.0000    0    12.011    4.086610   -3.194951    2.191205
  26 H     1.0000    0     1.008    5.832729   -2.643816    1.248355
  27 H     1.0000    0     1.008    3.295964   -4.852887    1.241289
  28 H     1.0000    0     1.008    4.412078   -3.583476    4.191964
  29 I    25.0000*   0   126.900    2.743132    0.176646   -3.348680
  30 C     6.0000    0    12.011    0.536703   -0.839957    5.506002
  31 H     1.0000    0     1.008   -0.233685   -2.747276    5.699915
  32 H     1.0000    0     1.008   -0.900419    0.574687    5.959699
  33 H     1.0000    0     1.008    2.191555   -0.606927    6.712294
* core charge reduced due to ECP

--------------------------------
INTERNAL COORDINATES (ANGSTROEM)
--------------------------------
 C      0   0   0     0.000000000000     0.00000000     0.00000000
 C      1   0   0     1.389705830306     0.00000000     0.00000000
 C      2   1   0     1.393117675789   118.44448162     0.00000000
 C      3   2   1     1.389316466263   118.92792810     0.05916770
 H      1   2   3     1.084663386837   121.46415666   180.20842894
 H      2   1   3     1.084646703224   119.97032286   179.91547136
 H      3   2   1     1.085518488866   120.81502284   180.04090038
 H      4   3   2     1.083604799068   119.94451291   180.23859788
 N      1   2   3     1.338154505321   122.79604946   359.66649001
 C      9   1   2     1.354447192080   119.40469273     0.28057599
 C     10   9   1     1.475649915400   116.37321805   180.62123412
 N     11  10   9     1.353670835450   116.26117034   356.75580447
 C     12  11  10     1.338773114547   119.56094190   178.36476360
 C     13  12  11     2.391407297180    91.82154270     0.33278804
 C     13  12  11     1.389497036776   122.62337423     0.46576057
 H     13  12  11     1.084505242072   115.70454357   181.36799837
 H     15  13  12     1.084614733456   119.95702003   180.30734640
 C     14  13  12     1.389376711513    88.27785414   359.75311469
 H     18  14  13     1.083573626874   119.94847000   181.01490311
 H     14  13  12     1.085501227218   151.48938411   180.72399266
 Pd    12  11  10     2.182316881614   116.03024856     4.95678126
 C     21  12  11     2.048263733107    98.37756521   179.07231697
 H     22  21  12     1.095095031303   106.80230978    41.78024171
 H     22  21  12     1.091314985807   106.47156584   282.25304466
 H     22  21  12     1.090726190315   111.59517464   161.30211664
 C     21  12  11     2.047766197079   175.99432652    31.93596921
 H     26  21  22     1.089854016905   108.35691892   309.55325171
 H     26  21  22     1.094286069044   106.34397680   192.30149991
 H     26  21  22     1.092198878061   110.91510338    71.78789321
 I     21  12  11     2.784536516039    85.88022312    84.64449556
 C     21  12  11     2.074831595522    94.63156578   266.26163143
 H     31  21  12     1.093358481323   107.36250332   113.53064485
 H     31  21  12     1.093794696398   107.26120474   354.62995155
 H     31  21  12     1.090667160806   110.46263830   233.97833980

---------------------------
INTERNAL COORDINATES (A.U.)
---------------------------
 C      0   0   0     0.000000000000     0.00000000     0.00000000
 C      1   0   0     2.626163425992     0.00000000     0.00000000
 C      2   1   0     2.632610879566   118.44448162     0.00000000
 C      3   2   1     2.625427634584   118.92792810     0.05916770
 H      1   2   3     2.049716748614   121.46415666   180.20842894
 H      2   1   3     2.049685221153   119.97032286   179.91547136
 H      3   2   1     2.051332657265   120.81502284   180.04090038
 H      4   3   2     2.047716307641   119.94451291   180.23859788
 N      1   2   3     2.528745539929   122.79604946   359.66649001
 C      9   1   2     2.559534255890   119.40469273     0.28057599
 C     10   9   1     2.788574209650   116.37321805   180.62123412
 N     11  10   9     2.558067154478   116.26117034   356.75580447
 C     12  11  10     2.529914541951   119.56094190   178.36476360
 C     13  12  11     4.519104866332    91.82154270     0.33278804
 C     13  12  11     2.625768863401   122.62337423     0.46576057
 H     13  12  11     2.049417898317   115.70454357   181.36799837
 H     15  13  12     2.049624807047   119.95702003   180.30734640
 C     14  13  12     2.625541481607    88.27785414   359.75311469
 H     18  14  13     2.047657400732   119.94847000   181.01490311
 H     14  13  12     2.051300037478   151.48938411   180.72399266
 Pd    12  11  10     4.123981243684   116.03024856     4.95678126
 C     21  12  11     3.870657505615    98.37756521   179.07231697
 H     22  21  12     2.069429699781   106.80230978    41.78024171
 H     22  21  12     2.062286449019   106.47156584   282.25304466
 H     22  21  12     2.061173786791   111.59517464   161.30211664
 C     21  12  11     3.869717298780   175.99432652    31.93596921
 H     26  21  22     2.059525617905   108.35691892   309.55325171
 H     26  21  22     2.067900982659   106.34397680   192.30149991
 H     26  21  22     2.063956763311   110.91510338    71.78789321
 I     21  12  11     5.262011425217    85.88022312    84.64449556
 C     21  12  11     3.920863489544    94.63156578   266.26163143
 H     31  21  12     2.066148095900   107.36250332   113.53064485
 H     31  21  12     2.066972422928   107.26120474   354.62995155
 H     31  21  12     2.061062237184   110.46263830   233.97833980

---------------------
BASIS SET INFORMATION
---------------------
There are 5 groups of distinct atoms

 Group   1 Type C   : 12s6p3d1f contracted to 6s3p3d1f pattern {621111/411/111/1}
 Group   2 Type H   : 5s3p1d contracted to 3s3p1d pattern {311/111/1}
 Group   3 Type N   : 12s6p3d1f contracted to 6s3p3d1f pattern {621111/411/111/1}
 Group   4 Type Pd  : 7s7p6d2f1g contracted to 6s4p3d2f1g pattern {211111/4111/411/11/1}
 Group   5 Type I   : 12s11p9d2f contracted to 7s6p4d2f pattern {5211111/341111/6111/11}

Atom   0C    basis set group =>   1
Atom   1C    basis set group =>   1
Atom   2C    basis set group =>   1
Atom   3C    basis set group =>   1
Atom   4H    basis set group =>   2
Atom   5H    basis set group =>   2
Atom   6H    basis set group =>   2
Atom   7H    basis set group =>   2
Atom   8N    basis set group =>   3
Atom   9C    basis set group =>   1
Atom  10C    basis set group =>   1
Atom  11N    basis set group =>   3
Atom  12C    basis set group =>   1
Atom  13C    basis set group =>   1
Atom  14C    basis set group =>   1
Atom  15H    basis set group =>   2
Atom  16H    basis set group =>   2
Atom  17C    basis set group =>   1
Atom  18H    basis set group =>   2
Atom  19H    basis set group =>   2
Atom  20Pd   basis set group =>   4
Atom  21C    basis set group =>   1
Atom  22H    basis set group =>   2
Atom  23H    basis set group =>   2
Atom  24H    basis set group =>   2
Atom  25C    basis set group =>   1
Atom  26H    basis set group =>   2
Atom  27H    basis set group =>   2
Atom  28H    basis set group =>   2
Atom  29I    basis set group =>   5
Atom  30C    basis set group =>   1
Atom  31H    basis set group =>   2
Atom  32H    basis set group =>   2
Atom  33H    basis set group =>   2
----------------------------------
AUXILIARY/JK BASIS SET INFORMATION
----------------------------------
There are 5 groups of distinct atoms

 Group   1 Type C   : 14s10p6d2f1g contracted to 10s8p5d1f1g pattern {5111111111/31111111/21111/2/1}
 Group   2 Type H   : 4s2p2d contracted to 2s2p2d pattern {31/11/11}
 Group   3 Type N   : 14s10p6d2f1g contracted to 10s8p4d2f1g pattern {5111111111/31111111/3111/11/1}
 Group   4 Type Pd  : 13s12p10d9f6g3h2i contracted to 11s10p9d8f6g3h2i pattern {31111111111/3111111111/211111111/21111111/111111/111/11}
 Group   5 Type I   : 13s12p11d8f6g3h contracted to 11s10p10d7f5g3h pattern {31111111111/3111111111/2111111111/2111111/21111/111}

Atom   0C    basis set group =>   1
Atom   1C    basis set group =>   1
Atom   2C    basis set group =>   1
Atom   3C    basis set group =>   1
Atom   4H    basis set group =>   2
Atom   5H    basis set group =>   2
Atom   6H    basis set group =>   2
Atom   7H    basis set group =>   2
Atom   8N    basis set group =>   3
Atom   9C    basis set group =>   1
Atom  10C    basis set group =>   1
Atom  11N    basis set group =>   3
Atom  12C    basis set group =>   1
Atom  13C    basis set group =>   1
Atom  14C    basis set group =>   1
Atom  15H    basis set group =>   2
Atom  16H    basis set group =>   2
Atom  17C    basis set group =>   1
Atom  18H    basis set group =>   2
Atom  19H    basis set group =>   2
Atom  20Pd   basis set group =>   4
Atom  21C    basis set group =>   1
Atom  22H    basis set group =>   2
Atom  23H    basis set group =>   2
Atom  24H    basis set group =>   2
Atom  25C    basis set group =>   1
Atom  26H    basis set group =>   2
Atom  27H    basis set group =>   2
Atom  28H    basis set group =>   2
Atom  29I    basis set group =>   5
Atom  30C    basis set group =>   1
Atom  31H    basis set group =>   2
Atom  32H    basis set group =>   2
Atom  33H    basis set group =>   2
-------------------------
ECP PARAMETER INFORMATION
-------------------------

 Group 1, Type Pd ECP Def2-ECP (replacing 28 core electrons, lmax=3)
 Group 2, Type I  ECP Def2-ECP (replacing 28 core electrons, lmax=3)

Atom  20Pd   ECP group =>   1
Atom  29I    ECP group =>   2



           ************************************************************
           *        Program running with 24 parallel MPI-processes    *
           *              working on a common directory               *
           ************************************************************
------------------------------------------------------------------------------
                           ORCA GTO INTEGRAL CALCULATION
------------------------------------------------------------------------------

                         BASIS SET STATISTICS AND STARTUP INFO

 # of primitive gaussian shells          ...  540
 # of primitive gaussian functions       ... 1288
 # of contracted shells                  ...  349
 # of contracted basis functions         ...  959
 Highest angular momentum                ...    4
 Maximum contraction depth               ...    6
 Integral package used                   ... LIBINT
 Integral threshhold            Thresh   ...  1.000e-10
 Primitive cut-off              TCut     ...  1.000e-11


------------------------------ INTEGRAL EVALUATION ----------------------------


 * One electron integrals 

   ECP integrals                         ... done
 Pre-screening matrix                    ... done
 Shell pair data                         ... done (   0.014 sec)



           ************************************************************
           *        Program running with 24 parallel MPI-processes    *
           *              working on a common directory               *
           ************************************************************
-------------------------------------------------------------------------------
                                 ORCA SCF
-------------------------------------------------------------------------------

------------
SCF SETTINGS
------------
Hamiltonian:
 Density Functional     Method          .... DFT(GTOs)
 Exchange Functional    Exchange        .... WB97M-V
 Correlation Functional Correlation     .... WB97M-V
 Gradients option       PostSCFGGA      .... off
 Hybrid DFT is turned on
   Fraction HF Exchange ScalHFX         ....  0.150000
   Scaling of DF-GGA-X  ScalDFX         ....  0.000000
   Scaling of DF-GGA-C  ScalDFC         ....  1.000000
   Scaling of DF-LDA-C  ScalLDAC        ....  1.000000
   Perturbative correction              ....  0.000000
   Density functional embedding theory  .... OFF
 Long-range corrected/Screened/Range-Separated Hybrid DFT is turned on
   Amount of maximum screened exact exchange              ....  0.850000
   Range separation parameter mu (erf(mu*r12)/r12)        ....  0.300000
   NL short-range parameter             ....  6.000000
   NL long-range parameter              ....  0.010000


General Settings:
 Integral files         IntName         .... MOR29_pr11
 Hartree-Fock type      HFTyp           .... RHF
 Total Charge           Charge          ....    0
 Multiplicity           Mult            ....    1
 Number of Electrons    NEL             ....  152
 Basis Dimension        Dim             ....  959
 Nuclear Repulsion      ENuc            ....   1690.8617730577 Eh

Convergence Acceleration:
 DIIS                   CNVDIIS         .... on
   Start iteration      DIISMaxIt       ....    12
   Startup error        DIISStart       ....  0.200000
   # of expansion vecs  DIISMaxEq       ....     5
   Bias factor          DIISBfac        ....   1.050
   Max. coefficient     DIISMaxC        ....  10.000
 Newton-Raphson         CNVNR           .... off
 SOSCF                  CNVSOSCF        .... off
 Level Shifting         CNVShift        .... on
   Level shift para.    LevelShift      ....    0.2500
   Turn off err/grad.   ShiftErr        ....    0.0010
 Zerner damping         CNVZerner       .... off
 Static damping         CNVDamp         .... on
   Fraction old density DampFac         ....    0.7000
   Max. Damping (<1)    DampMax         ....    0.9800
   Min. Damping (>=0)   DampMin         ....    0.0000
   Turn off err/grad.   DampErr         ....    0.1000
 Fernandez-Rico         CNVRico         .... off

SCF Procedure:
 Maximum # iterations   MaxIter         ....   125
 SCF integral mode      SCFMode         .... Direct
   Integral package                     .... LIBINT
 Reset frequency        DirectResetFreq ....    20
 Integral Threshold     Thresh          ....  1.000e-10 Eh
 Primitive CutOff       TCut            ....  1.000e-11 Eh

Convergence Tolerance:
 Convergence Check Mode ConvCheckMode   .... Total+1el-Energy
 Convergence forced     ConvForced      .... 0
 Energy Change          TolE            ....  1.000e-06 Eh
 1-El. energy change                    ....  1.000e-03 Eh
 DIIS Error             TolErr          ....  1.000e-06


Diagonalization of the overlap matrix:
Smallest eigenvalue                        ... 1.498e-07
Time for diagonalization                   ...    0.180 sec
Threshold for overlap eigenvalues          ... 1.000e-08
Number of eigenvalues below threshold      ... 0
Time for construction of square roots      ...    0.117 sec
Total time needed                          ...    0.300 sec

-------------------
DFT GRID GENERATION
-------------------

General Integration Accuracy     IntAcc      ...  4.670
Radial Grid Type                 RadialGrid  ... Gauss-Chebyshev
Angular Grid (max. acc.)         AngularGrid ... Lebedev-302
Angular grid pruning method      GridPruning ... 3 (G Style)
Weight generation scheme         WeightScheme... Becke
Basis function cutoff            BFCut       ...    1.0000e-10
Integration weight cutoff        WCut        ...    1.0000e-14
Grids for H and He will be reduced by one unit

# of grid points (after initial pruning)     ... 172302 (   0.0 sec)
# of grid points (after weights+screening)   ... 150815 (   0.1 sec)
nearest neighbour list constructed           ...    0.0 sec
Grid point re-assignment to atoms done       ...    0.0 sec
Grid point division into batches done        ...    0.6 sec
Reduced shell lists constructed in    0.8 sec

Total number of grid points                  ...   150815
Total number of batches                      ...     2375
Average number of points per batch           ...       63
Average number of grid points per atom       ...     4436
Average number of shells per batch           ...   192.56 (55.17%)
Average number of basis functions per batch  ...   517.28 (53.94%)
Average number of large shells per batch     ...   141.18 (73.32%)
Average number of large basis fcns per batch ...   382.50 (73.94%)
Maximum spatial batch extension              ...  15.50, 20.34, 20.40 au
Average spatial batch extension              ...   0.07,  0.08,  0.07 au

Time for grid setup =    0.945 sec

------------------------------
INITIAL GUESS: MODEL POTENTIAL
------------------------------
Loading Hartree-Fock densities                     ... done
  calling /sw/apps/orca/orca_4_2_0_linux_x86-64_openmpi314/orca MOR29_pr11_atom46.inp > MOR29_pr11_atom46.out in order to generate an atomic fitting density for atom 20 (Pd with ECP) on-the-fly... 
    atom 20 (Pd), assumed electronic state with S=3: 1s2 2s2 2p6 3s2 3p6 4s2 3d10 4p6 5s2 4d8           ... done
  calling /sw/apps/orca/orca_4_2_0_linux_x86-64_openmpi314/orca MOR29_pr11_atom53.inp > MOR29_pr11_atom53.out in order to generate an atomic fitting density for atom 29 (I  with ECP) on-the-fly... 
    atom 29 (I ), assumed electronic state with S=2: 1s2 2s2 2p6 3s2 3p6 4s2 3d10 4p6 5s2 4d10 5p5           ... done
Calculating cut-offs                               ... done
Setting up the integral package                    ... done
Initializing the effective Hamiltonian             ... done
Starting the Coulomb interaction                   ... done (   0.2 sec)
Reading the grid                                   ... done
Mapping shells                                     ... done
Starting the XC term evaluation                    ... done (   0.5 sec)
  promolecular density results
     # of electrons  =    207.985699172
     EX              =   -396.279554054
     EC              =     -8.930256539
     EX+EC           =   -405.209810593
Transforming the Hamiltonian                       ... done (   0.1 sec)
Diagonalizing the Hamiltonian                      ... done (   0.2 sec)
Back transforming the eigenvectors                 ... done (   0.0 sec)
Now organizing SCF variables                       ... done
                      ------------------
                      INITIAL GUESS DONE (   4.3 sec)
                      ------------------
--------------
SCF ITERATIONS
--------------
ITER       Energy         Delta-E        Max-DP      RMS-DP      [F,P]     Damp
               ***  Starting incremental Fock matrix formation  ***
  0   -770.7694076261   0.000000000000119.17479101  0.46755455  6.7953622 0.7000
  1   -942.3388101341-171.569402508019108.13950551  0.33052662  2.6439730 0.7000
  2   -971.8999774199 -29.56116728580276.13274065  0.23926840  0.8248402 0.7000
  3   -992.1201464293 -20.22016900940760.93296732  0.18878023  0.6425586 0.7000
  4  -1006.4971609935 -14.37701456417445.94443700  0.14220300  0.4749770 0.7000
  5  -1016.6963666960 -10.19920570252733.30888002  0.10293380  0.3409897 0.7000
  6  -1023.9259337436  -7.22956704753323.76142478  0.07333349  0.2414822 0.7000
                               ***Turning on DIIS***
  7  -1029.0407382379  -5.11480449429716.84324292  0.05196703  0.1890631 0.7000
  8  -1032.6513456253  -3.61060738741112.03694235  0.03714148  0.1462107 0.7000
  9  -1035.1953260758  -2.543980450480 8.48776285  0.02634633  0.1024539 0.7000
 10  -1036.9848411351  -1.78951505936819.62271396  0.06107592  0.0701864 0.0000
 11  -1041.1923284068  -4.207487271665 0.22074500  0.00058192  0.0031535 0.0000
 12  -1041.1930438791  -0.000715472256 0.17372046  0.00054137  0.0019178 0.0000
 13  -1041.1933663410  -0.000322461934 0.36121616  0.00128795  0.0016702 0.0000
 14  -1041.1934619369  -0.000095595922 0.05668363  0.00017321  0.0018772 0.0000
 15  -1041.1935019444  -0.000040007483 0.37714685  0.00144172  0.0004190 0.0000
 16  -1041.1935210145  -0.000019070128 0.14885373  0.00048118  0.0004699 0.0000
 17  -1041.1935237835  -0.000002768988 0.07154207  0.00034549  0.0001192 0.0000
 18  -1041.1935243007  -0.000000517137 0.38476911  0.00152273  0.0000847 0.0000
 19  -1041.1935244111  -0.000000110488 0.28525033  0.00104759  0.0000408 0.0000
               *** Restarting incremental Fock matrix formation ***
                                   *** Resetting DIIS ***
 20  -1041.1935242066   0.000000204550 0.91668766  0.00410742  0.0000364 0.0000
 21  -1041.1935241565   0.000000050112 0.34370727  0.00148390  0.0000701 0.0000
                 **** Energy Check signals convergence ****

               *****************************************************
               *                     SUCCESS                       *
               *           SCF CONVERGED AFTER  22 CYCLES          *
               *****************************************************


Setting up the DFT-NL grid :

General Integration Accuracy     IntAcc      ...  4.340
Radial Grid Type                 RadialGrid  ... Gauss-Chebyshev
Angular Grid (max. acc.)         AngularGrid ... Lebedev-110
Angular grid pruning method      GridPruning ... 3 (G Style)
Weight generation scheme         WeightScheme... Becke
Basis function cutoff            BFCut       ...    1.0000e-10
Integration weight cutoff        WCut        ...    1.0000e-14
Grids for H and He will be reduced by one unit

# of grid points (after initial pruning)     ...  44956 (   0.0 sec)
# of grid points (after weights+screening)   ...  40192 (   0.0 sec)
nearest neighbour list constructed           ...    0.0 sec
Grid point re-assignment to atoms done       ...    0.0 sec
Grid point division into batches done        ...    0.0 sec
Reduced shell lists constructed in    0.1 sec

Total number of grid points                  ...    40192
Total number of batches                      ...      645
Average number of points per batch           ...       62
Average number of grid points per atom       ...     1182
Average number of shells per batch           ...   197.96 (56.72%)
Average number of basis functions per batch  ...   535.82 (55.87%)
Average number of large shells per batch     ...   146.18 (73.84%)
Average number of large basis fcns per batch ...   397.96 (74.27%)
Maximum spatial batch extension              ...  15.05, 19.65, 18.80 au
Average spatial batch extension              ...   0.10,  0.10,  0.11 au

Final grid set up in    0.1 sec

-------------------------------------------------------------------------------
                         DFT-NL dispersion correction                          
-------------------------------------------------------------------------------

SC Energy -1041.193524217 
NL    Energy 0.548412953 
SC+NL Energy -1040.645111264 
NL done in    0.6 sec
-------------------------------------------------------------------------------

----------------
TOTAL SCF ENERGY
----------------

Total Energy       :        -1040.64511126 Eh          -28317.39311 eV

Components:
Nuclear Repulsion  :         1690.86177306 Eh           46010.68798 eV
Electronic Energy  :        -2731.50688432 Eh          -74328.08109 eV
One Electron Energy:        -4939.93835406 Eh         -134422.55652 eV
Two Electron Energy:         2208.43146974 Eh           60094.47544 eV

Virial components:
Potential Energy   :        -1815.00389384 Eh          -49388.76683 eV
Kinetic Energy     :          774.35878257 Eh           21071.37372 eV
Virial Ratio       :            2.34387978


DFT components:
N(Alpha)           :       76.000114075557 electrons
N(Beta)            :       76.000114075557 electrons
N(Total)           :      152.000228151114 electrons
E(X)               :      -82.761938582563 Eh       
E(C)               :       -5.046495685991 Eh       
NL Energy, E(C,NL) :        0.548412952790 Eh       
E(XC)              :      -87.260021315765 Eh       
DFET-embed. en.    :        0.000000000000 Eh       

---------------
SCF CONVERGENCE
---------------

  Last Energy change         ...   -6.0599e-08  Tolerance :   1.0000e-06
  Last MAX-Density change    ...    1.8373e-01  Tolerance :   1.0000e-05
  Last RMS-Density change    ...    7.2662e-04  Tolerance :   1.0000e-06
  Last DIIS Error            ...    8.7502e-06  Tolerance :   1.0000e-06

             **** THE GBW FILE WAS UPDATED (MOR29_pr11.gbw) ****
             **** DENSITY FILE WAS UPDATED (MOR29_pr11.scfp) ****
             **** ENERGY FILE WAS UPDATED (MOR29_pr11.en.tmp) ****
             **** THE GBW FILE WAS UPDATED (MOR29_pr11.gbw) ****
             **** DENSITY FILE WAS UPDATED (MOR29_pr11.scfp) ****
----------------
ORBITAL ENERGIES
----------------

  NO   OCC          E(Eh)            E(eV) 
   0   2.0000     -14.565710      -396.3531 
   1   2.0000     -14.564929      -396.3319 
   2   2.0000     -10.436860      -284.0014 
   3   2.0000     -10.436032      -283.9789 
   4   2.0000     -10.419735      -283.5354 
   5   2.0000     -10.418478      -283.5012 
   6   2.0000     -10.402743      -283.0730 
   7   2.0000     -10.401765      -283.0464 
   8   2.0000     -10.395618      -282.8791 
   9   2.0000     -10.394837      -282.8579 
  10   2.0000     -10.390678      -282.7447 
  11   2.0000     -10.389508      -282.7129 
  12   2.0000     -10.332619      -281.1649 
  13   2.0000     -10.329167      -281.0709 
  14   2.0000     -10.327656      -281.0298 
  15   2.0000      -6.916176      -188.1987 
  16   2.0000      -4.920906      -133.9046 
  17   2.0000      -4.916680      -133.7897 
  18   2.0000      -4.916599      -133.7875 
  19   2.0000      -3.645441       -99.1975 
  20   2.0000      -2.317926       -63.0740 
  21   2.0000      -2.314312       -62.9756 
  22   2.0000      -2.314021       -62.9677 
  23   2.0000      -1.940449       -52.8023 
  24   2.0000      -1.939144       -52.7668 
  25   2.0000      -1.939067       -52.7647 
  26   2.0000      -1.935462       -52.6666 
  27   2.0000      -1.935438       -52.6659 
  28   2.0000      -1.130923       -30.7740 
  29   2.0000      -1.105364       -30.0785 
  30   2.0000      -0.971621       -26.4391 
  31   2.0000      -0.963047       -26.2058 
  32   2.0000      -0.959351       -26.1053 
  33   2.0000      -0.902653       -24.5624 
  34   2.0000      -0.814058       -22.1516 
  35   2.0000      -0.804730       -21.8978 
  36   2.0000      -0.802822       -21.8459 
  37   2.0000      -0.776267       -21.1233 
  38   2.0000      -0.775396       -21.0996 
  39   2.0000      -0.765040       -20.8178 
  40   2.0000      -0.757563       -20.6143 
  41   2.0000      -0.714722       -19.4486 
  42   2.0000      -0.695242       -18.9185 
  43   2.0000      -0.651302       -17.7228 
  44   2.0000      -0.648758       -17.6536 
  45   2.0000      -0.626471       -17.0471 
  46   2.0000      -0.609812       -16.5938 
  47   2.0000      -0.586655       -15.9637 
  48   2.0000      -0.581151       -15.8139 
  49   2.0000      -0.574701       -15.6384 
  50   2.0000      -0.564066       -15.3490 
  51   2.0000      -0.554814       -15.0973 
  52   2.0000      -0.545960       -14.8563 
  53   2.0000      -0.528870       -14.3913 
  54   2.0000      -0.520848       -14.1730 
  55   2.0000      -0.516098       -14.0437 
  56   2.0000      -0.512321       -13.9410 
  57   2.0000      -0.499861       -13.6019 
  58   2.0000      -0.480318       -13.0701 
  59   2.0000      -0.475140       -12.9292 
  60   2.0000      -0.472060       -12.8454 
  61   2.0000      -0.470515       -12.8034 
  62   2.0000      -0.457055       -12.4371 
  63   2.0000      -0.438929       -11.9439 
  64   2.0000      -0.432914       -11.7802 
  65   2.0000      -0.424169       -11.5422 
  66   2.0000      -0.421165       -11.4605 
  67   2.0000      -0.395175       -10.7533 
  68   2.0000      -0.391596       -10.6559 
  69   2.0000      -0.390421       -10.6239 
  70   2.0000      -0.370609       -10.0848 
  71   2.0000      -0.358958        -9.7677 
  72   2.0000      -0.357892        -9.7387 
  73   2.0000      -0.288372        -7.8470 
  74   2.0000      -0.280020        -7.6197 
  75   2.0000      -0.279520        -7.6061 
  76   0.0000      -0.026162        -0.7119 
  77   0.0000       0.005380         0.1464 
  78   0.0000       0.017081         0.4648 
  79   0.0000       0.020684         0.5628 
  80   0.0000       0.028848         0.7850 
  81   0.0000       0.032458         0.8832 
  82   0.0000       0.037564         1.0222 
  83   0.0000       0.041786         1.1371 
  84   0.0000       0.045704         1.2437 
  85   0.0000       0.050471         1.3734 
  86   0.0000       0.056127         1.5273 
  87   0.0000       0.060699         1.6517 
  88   0.0000       0.063099         1.7170 
  89   0.0000       0.066794         1.8176 
  90   0.0000       0.068275         1.8579 
  91   0.0000       0.072122         1.9626 
  92   0.0000       0.080614         2.1936 
  93   0.0000       0.091387         2.4868 
  94   0.0000       0.098004         2.6668 
  95   0.0000       0.098447         2.6789 
  96   0.0000       0.107222         2.9177 
  97   0.0000       0.110916         3.0182 
  98   0.0000       0.126535         3.4432 
  99   0.0000       0.129437         3.5222 
 100   0.0000       0.131487         3.5780 
 101   0.0000       0.136499         3.7143 
 102   0.0000       0.142110         3.8670 
 103   0.0000       0.145649         3.9633 
 104   0.0000       0.146714         3.9923 
 105   0.0000       0.152678         4.1546 
 106   0.0000       0.155225         4.2239 
 107   0.0000       0.163980         4.4621 
 108   0.0000       0.170044         4.6271 
 109   0.0000       0.170760         4.6466 
 110   0.0000       0.173140         4.7114 
 111   0.0000       0.180354         4.9077 
 112   0.0000       0.183093         4.9822 
 113   0.0000       0.187086         5.0909 
 114   0.0000       0.190252         5.1770 
 115   0.0000       0.193249         5.2586 
 116   0.0000       0.196848         5.3565 
 117   0.0000       0.201097         5.4721 
 118   0.0000       0.202650         5.5144 
 119   0.0000       0.206814         5.6277 
 120   0.0000       0.213399         5.8069 
 121   0.0000       0.215801         5.8722 
 122   0.0000       0.219994         5.9863 
 123   0.0000       0.222354         6.0506 
 124   0.0000       0.226656         6.1676 
 125   0.0000       0.226753         6.1703 
 126   0.0000       0.231060         6.2875 
 127   0.0000       0.235997         6.4218 
 128   0.0000       0.237851         6.4723 
 129   0.0000       0.239448         6.5157 
 130   0.0000       0.241248         6.5647 
 131   0.0000       0.242976         6.6117 
 132   0.0000       0.245793         6.6884 
 133   0.0000       0.248402         6.7594 
 134   0.0000       0.251579         6.8458 
 135   0.0000       0.257280         7.0010 
 136   0.0000       0.262415         7.1407 
 137   0.0000       0.266077         7.2403 
 138   0.0000       0.269354         7.3295 
 139   0.0000       0.271429         7.3860 
 140   0.0000       0.276556         7.5255 
 141   0.0000       0.277417         7.5489 
 142   0.0000       0.284512         7.7420 
 143   0.0000       0.285988         7.7821 
 144   0.0000       0.288042         7.8380 
 145   0.0000       0.290025         7.8920 
 146   0.0000       0.293847         7.9960 
 147   0.0000       0.295168         8.0319 
 148   0.0000       0.298997         8.1361 
 149   0.0000       0.300762         8.1841 
 150   0.0000       0.305522         8.3137 
 151   0.0000       0.307092         8.3564 
 152   0.0000       0.312145         8.4939 
 153   0.0000       0.317679         8.6445 
 154   0.0000       0.322194         8.7674 
 155   0.0000       0.323856         8.8126 
 156   0.0000       0.327532         8.9126 
 157   0.0000       0.329278         8.9601 
 158   0.0000       0.332153         9.0384 
 159   0.0000       0.333623         9.0783 
 160   0.0000       0.336525         9.1573 
 161   0.0000       0.338569         9.2129 
 162   0.0000       0.342644         9.3238 
 163   0.0000       0.344142         9.3646 
 164   0.0000       0.344244         9.3673 
 165   0.0000       0.345874         9.4117 
 166   0.0000       0.348115         9.4727 
 167   0.0000       0.350754         9.5445 
 168   0.0000       0.356267         9.6945 
 169   0.0000       0.360170         9.8007 
 170   0.0000       0.363830         9.9003 
 171   0.0000       0.365828         9.9547 
 172   0.0000       0.367179         9.9914 
 173   0.0000       0.369355        10.0507 
 174   0.0000       0.370727        10.0880 
 175   0.0000       0.371712        10.1148 
 176   0.0000       0.372416        10.1340 
 177   0.0000       0.376676        10.2499 
 178   0.0000       0.379483        10.3263 
 179   0.0000       0.383840        10.4448 
 180   0.0000       0.386922        10.5287 
 181   0.0000       0.389073        10.5872 
 182   0.0000       0.391197        10.6450 
 183   0.0000       0.392401        10.6778 
 184   0.0000       0.397927        10.8281 
 185   0.0000       0.400540        10.8992 
 186   0.0000       0.403041        10.9673 
 187   0.0000       0.406227        11.0540 
 188   0.0000       0.411328        11.1928 
 189   0.0000       0.413026        11.2390 
 190   0.0000       0.414686        11.2842 
 191   0.0000       0.418524        11.3886 
 192   0.0000       0.422586        11.4991 
 193   0.0000       0.427414        11.6305 
 194   0.0000       0.433305        11.7908 
 195   0.0000       0.435147        11.8410 
 196   0.0000       0.436351        11.8737 
 197   0.0000       0.438743        11.9388 
 198   0.0000       0.442132        12.0310 
 199   0.0000       0.446045        12.1375 
 200   0.0000       0.447396        12.1743 
 201   0.0000       0.450532        12.2596 
 202   0.0000       0.452218        12.3055 
 203   0.0000       0.461862        12.5679 
 204   0.0000       0.464690        12.6449 
 205   0.0000       0.466401        12.6914 
 206   0.0000       0.469454        12.7745 
 207   0.0000       0.470248        12.7961 
 208   0.0000       0.476940        12.9782 
 209   0.0000       0.478251        13.0139 
 210   0.0000       0.481030        13.0895 
 211   0.0000       0.485300        13.2057 
 212   0.0000       0.487908        13.2766 
 213   0.0000       0.490270        13.3409 
 214   0.0000       0.495695        13.4885 
 215   0.0000       0.497258        13.5311 
 216   0.0000       0.503157        13.6916 
 217   0.0000       0.506518        13.7831 
 218   0.0000       0.510994        13.9049 
 219   0.0000       0.512887        13.9564 
 220   0.0000       0.518266        14.1027 
 221   0.0000       0.520773        14.1709 
 222   0.0000       0.522844        14.2273 
 223   0.0000       0.526354        14.3228 
 224   0.0000       0.529131        14.3984 
 225   0.0000       0.532660        14.4944 
 226   0.0000       0.536313        14.5938 
 227   0.0000       0.538017        14.6402 
 228   0.0000       0.542080        14.7508 
 229   0.0000       0.544502        14.8167 
 230   0.0000       0.549477        14.9520 
 231   0.0000       0.554250        15.0819 
 232   0.0000       0.555772        15.1233 
 233   0.0000       0.557397        15.1675 
 234   0.0000       0.563736        15.3400 
 235   0.0000       0.570080        15.5127 
 236   0.0000       0.573027        15.5929 
 237   0.0000       0.577732        15.7209 
 238   0.0000       0.580653        15.8004 
 239   0.0000       0.581934        15.8352 
 240   0.0000       0.584474        15.9044 
 241   0.0000       0.596394        16.2287 
 242   0.0000       0.597375        16.2554 
 243   0.0000       0.600712        16.3462 
 244   0.0000       0.601761        16.3747 
 245   0.0000       0.602666        16.3994 
 246   0.0000       0.608876        16.5684 
 247   0.0000       0.615109        16.7380 
 248   0.0000       0.619326        16.8527 
 249   0.0000       0.623868        16.9763 
 250   0.0000       0.627421        17.0730 
 251   0.0000       0.630414        17.1544 
 252   0.0000       0.636430        17.3181 
 253   0.0000       0.639321        17.3968 
 254   0.0000       0.643363        17.5068 
 255   0.0000       0.646276        17.5861 
 256   0.0000       0.647591        17.6218 
 257   0.0000       0.648798        17.6547 
 258   0.0000       0.652809        17.7638 
 259   0.0000       0.654923        17.8214 
 260   0.0000       0.658243        17.9117 
 261   0.0000       0.659646        17.9499 
 262   0.0000       0.668160        18.1816 
 263   0.0000       0.671077        18.2609 
 264   0.0000       0.672990        18.3130 
 265   0.0000       0.674282        18.3481 
 266   0.0000       0.681161        18.5353 
 267   0.0000       0.683251        18.5922 
 268   0.0000       0.684164        18.6171 
 269   0.0000       0.687551        18.7092 
 270   0.0000       0.690958        18.8019 
 271   0.0000       0.693104        18.8603 
 272   0.0000       0.695804        18.9338 
 273   0.0000       0.697853        18.9896 
 274   0.0000       0.699678        19.0392 
 275   0.0000       0.704591        19.1729 
 276   0.0000       0.705798        19.2057 
 277   0.0000       0.707606        19.2549 
 278   0.0000       0.710711        19.3394 
 279   0.0000       0.713256        19.4087 
 280   0.0000       0.720404        19.6032 
 281   0.0000       0.724853        19.7242 
 282   0.0000       0.729098        19.8398 
 283   0.0000       0.730883        19.8883 
 284   0.0000       0.735286        20.0081 
 285   0.0000       0.742133        20.1945 
 286   0.0000       0.743622        20.2350 
 287   0.0000       0.743995        20.2451 
 288   0.0000       0.751865        20.4593 
 289   0.0000       0.754898        20.5418 
 290   0.0000       0.756611        20.5884 
 291   0.0000       0.760644        20.6982 
 292   0.0000       0.763286        20.7701 
 293   0.0000       0.766785        20.8653 
 294   0.0000       0.771928        21.0052 
 295   0.0000       0.776039        21.1171 
 296   0.0000       0.779793        21.2193 
 297   0.0000       0.781373        21.2622 
 298   0.0000       0.782596        21.2955 
 299   0.0000       0.785235        21.3673 
 300   0.0000       0.788625        21.4596 
 301   0.0000       0.793950        21.6045 
 302   0.0000       0.794637        21.6232 
 303   0.0000       0.799379        21.7522 
 304   0.0000       0.804024        21.8786 
 305   0.0000       0.808942        22.0124 
 306   0.0000       0.810164        22.0457 
 307   0.0000       0.816596        22.2207 
 308   0.0000       0.818221        22.2649 
 309   0.0000       0.822298        22.3759 
 310   0.0000       0.824181        22.4271 
 311   0.0000       0.826502        22.4903 
 312   0.0000       0.832272        22.6473 
 313   0.0000       0.832507        22.6537 
 314   0.0000       0.837651        22.7936 
 315   0.0000       0.843258        22.9462 
 316   0.0000       0.844947        22.9922 
 317   0.0000       0.850734        23.1496 
 318   0.0000       0.853543        23.2261 
 319   0.0000       0.857607        23.3367 
 320   0.0000       0.863610        23.5000 
 321   0.0000       0.870724        23.6936 
 322   0.0000       0.872567        23.7438 
 323   0.0000       0.876680        23.8557 
 324   0.0000       0.881323        23.9820 
 325   0.0000       0.886087        24.1117 
 326   0.0000       0.894720        24.3466 
 327   0.0000       0.899917        24.4880 
 328   0.0000       0.903602        24.5882 
 329   0.0000       0.913743        24.8642 
 330   0.0000       0.916574        24.9412 
 331   0.0000       0.921285        25.0694 
 332   0.0000       0.925336        25.1797 
 333   0.0000       0.931975        25.3603 
 334   0.0000       0.935868        25.4663 
 335   0.0000       0.940153        25.5829 
 336   0.0000       0.946684        25.7606 
 337   0.0000       0.954061        25.9613 
 338   0.0000       0.962344        26.1867 
 339   0.0000       0.968359        26.3504 
 340   0.0000       0.971862        26.4457 
 341   0.0000       0.980124        26.6705 
 342   0.0000       0.983945        26.7745 
 343   0.0000       0.991336        26.9756 
 344   0.0000       0.997848        27.1528 
 345   0.0000       1.000054        27.2129 
 346   0.0000       1.003424        27.3046 
 347   0.0000       1.010899        27.5080 
 348   0.0000       1.012923        27.5630 
 349   0.0000       1.015358        27.6293 
 350   0.0000       1.021796        27.8045 
 351   0.0000       1.028714        27.9927 
 352   0.0000       1.031375        28.0651 
 353   0.0000       1.036784        28.2123 
 354   0.0000       1.040299        28.3080 
 355   0.0000       1.047539        28.5050 
 356   0.0000       1.051592        28.6153 
 357   0.0000       1.054352        28.6904 
 358   0.0000       1.058026        28.7904 
 359   0.0000       1.067284        29.0423 
 360   0.0000       1.072443        29.1827 
 361   0.0000       1.074764        29.2458 
 362   0.0000       1.083617        29.4867 
 363   0.0000       1.090249        29.6672 
 364   0.0000       1.093177        29.7468 
 365   0.0000       1.099998        29.9325 
 366   0.0000       1.104940        30.0669 
 367   0.0000       1.114043        30.3147 
 368   0.0000       1.119103        30.4523 
 369   0.0000       1.123033        30.5593 
 370   0.0000       1.125477        30.6258 
 371   0.0000       1.136829        30.9347 
 372   0.0000       1.143854        31.1259 
 373   0.0000       1.149772        31.2869 
 374   0.0000       1.154790        31.4234 
 375   0.0000       1.159313        31.5465 
 376   0.0000       1.164384        31.6845 
 377   0.0000       1.170405        31.8483 
 378   0.0000       1.176534        32.0151 
 379   0.0000       1.182886        32.1880 
 380   0.0000       1.192386        32.4465 
 381   0.0000       1.193948        32.4890 
 382   0.0000       1.198160        32.6036 
 383   0.0000       1.206874        32.8407 
 384   0.0000       1.208365        32.8813 
 385   0.0000       1.216873        33.1128 
 386   0.0000       1.227536        33.4029 
 387   0.0000       1.235642        33.6235 
 388   0.0000       1.239337        33.7241 
 389   0.0000       1.249687        34.0057 
 390   0.0000       1.252027        34.0694 
 391   0.0000       1.257060        34.2063 
 392   0.0000       1.260452        34.2986 
 393   0.0000       1.266264        34.4568 
 394   0.0000       1.271285        34.5934 
 395   0.0000       1.283126        34.9156 
 396   0.0000       1.288346        35.0577 
 397   0.0000       1.295706        35.2579 
 398   0.0000       1.299463        35.3602 
 399   0.0000       1.304046        35.4849 
 400   0.0000       1.310081        35.6491 
 401   0.0000       1.312894        35.7257 
 402   0.0000       1.322059        35.9751 
 403   0.0000       1.325505        36.0688 
 404   0.0000       1.335768        36.3481 
 405   0.0000       1.338852        36.4320 
 406   0.0000       1.342219        36.5236 
 407   0.0000       1.349405        36.7192 
 408   0.0000       1.352471        36.8026 
 409   0.0000       1.358750        36.9735 
 410   0.0000       1.366297        37.1788 
 411   0.0000       1.369100        37.2551 
 412   0.0000       1.373818        37.3835 
 413   0.0000       1.388265        37.7766 
 414   0.0000       1.396070        37.9890 
 415   0.0000       1.409220        38.3468 
 416   0.0000       1.413603        38.4661 
 417   0.0000       1.414879        38.5008 
 418   0.0000       1.418922        38.6108 
 419   0.0000       1.422389        38.7052 
 420   0.0000       1.425669        38.7944 
 421   0.0000       1.439240        39.1637 
 422   0.0000       1.450934        39.4819 
 423   0.0000       1.454873        39.5891 
 424   0.0000       1.459634        39.7187 
 425   0.0000       1.462954        39.8090 
 426   0.0000       1.467944        39.9448 
 427   0.0000       1.475615        40.1535 
 428   0.0000       1.482343        40.3366 
 429   0.0000       1.485602        40.4253 
 430   0.0000       1.493431        40.6383 
 431   0.0000       1.498554        40.7777 
 432   0.0000       1.501950        40.8701 
 433   0.0000       1.507234        41.0139 
 434   0.0000       1.513956        41.1968 
 435   0.0000       1.525708        41.5166 
 436   0.0000       1.528511        41.5929 
 437   0.0000       1.529254        41.6131 
 438   0.0000       1.548581        42.1390 
 439   0.0000       1.554185        42.2915 
 440   0.0000       1.558389        42.4059 
 441   0.0000       1.565065        42.5876 
 442   0.0000       1.569982        42.7214 
 443   0.0000       1.576380        42.8955 
 444   0.0000       1.581997        43.0483 
 445   0.0000       1.587931        43.2098 
 446   0.0000       1.593914        43.3726 
 447   0.0000       1.598752        43.5043 
 448   0.0000       1.613957        43.9180 
 449   0.0000       1.615127        43.9498 
 450   0.0000       1.620183        44.0874 
 451   0.0000       1.622649        44.1545 
 452   0.0000       1.631287        44.3896 
 453   0.0000       1.636390        44.5284 
 454   0.0000       1.639820        44.6218 
 455   0.0000       1.648866        44.8679 
 456   0.0000       1.661314        45.2067 
 457   0.0000       1.665267        45.3142 
 458   0.0000       1.675419        45.5905 
 459   0.0000       1.679752        45.7084 
 460   0.0000       1.689023        45.9607 
 461   0.0000       1.703736        46.3610 
 462   0.0000       1.709074        46.5063 
 463   0.0000       1.717929        46.7472 
 464   0.0000       1.721694        46.8497 
 465   0.0000       1.728846        47.0443 
 466   0.0000       1.729149        47.0525 
 467   0.0000       1.741588        47.3910 
 468   0.0000       1.752878        47.6982 
 469   0.0000       1.758850        47.8608 
 470   0.0000       1.764826        48.0234 
 471   0.0000       1.768194        48.1150 
 472   0.0000       1.772832        48.2412 
 473   0.0000       1.783762        48.5386 
 474   0.0000       1.789765        48.7020 
 475   0.0000       1.795713        48.8638 
 476   0.0000       1.798437        48.9380 
 477   0.0000       1.807408        49.1821 
 478   0.0000       1.808283        49.2059 
 479   0.0000       1.811906        49.3045 
 480   0.0000       1.818038        49.4713 
 481   0.0000       1.826695        49.7069 
 482   0.0000       1.831869        49.8477 
 483   0.0000       1.838202        50.0200 
 484   0.0000       1.843785        50.1720 
 485   0.0000       1.850165        50.3455 
 486   0.0000       1.857701        50.5506 
 487   0.0000       1.864751        50.7425 
 488   0.0000       1.869235        50.8645 
 489   0.0000       1.871740        50.9326 
 490   0.0000       1.878621        51.1199 
 491   0.0000       1.881022        51.1852 
 492   0.0000       1.890843        51.4525 
 493   0.0000       1.895177        51.5704 
 494   0.0000       1.900429        51.7133 
 495   0.0000       1.904278        51.8180 
 496   0.0000       1.907135        51.8958 
 497   0.0000       1.916653        52.1548 
 498   0.0000       1.923404        52.3385 
 499   0.0000       1.933167        52.6042 
 500   0.0000       1.937872        52.7322 
 501   0.0000       1.949287        53.0428 
 502   0.0000       1.955607        53.2148 
 503   0.0000       1.963561        53.4312 
 504   0.0000       1.970754        53.6269 
 505   0.0000       1.978736        53.8441 
 506   0.0000       1.982157        53.9372 
 507   0.0000       1.990250        54.1575 
 508   0.0000       2.008414        54.6517 
 509   0.0000       2.010730        54.7147 
 510   0.0000       2.019736        54.9598 
 511   0.0000       2.039734        55.5040 
 512   0.0000       2.050972        55.8098 
 513   0.0000       2.052861        55.8612 
 514   0.0000       2.065261        56.1986 
 515   0.0000       2.078167        56.5498 
 516   0.0000       2.087350        56.7997 
 517   0.0000       2.092743        56.9464 
 518   0.0000       2.099228        57.1229 
 519   0.0000       2.111712        57.4626 
 520   0.0000       2.123421        57.7812 
 521   0.0000       2.138085        58.1803 
 522   0.0000       2.146030        58.3964 
 523   0.0000       2.152512        58.5728 
 524   0.0000       2.182227        59.3814 
 525   0.0000       2.198204        59.8162 
 526   0.0000       2.208965        60.1090 
 527   0.0000       2.218859        60.3782 
 528   0.0000       2.224170        60.5227 
 529   0.0000       2.230732        60.7013 
 530   0.0000       2.241273        60.9881 
 531   0.0000       2.243731        61.0550 
 532   0.0000       2.254819        61.3568 
 533   0.0000       2.265285        61.6415 
 534   0.0000       2.277108        61.9632 
 535   0.0000       2.288015        62.2601 
 536   0.0000       2.299460        62.5715 
 537   0.0000       2.309434        62.8429 
 538   0.0000       2.317829        63.0713 
 539   0.0000       2.355610        64.0994 
 540   0.0000       2.370183        64.4960 
 541   0.0000       2.371777        64.5393 
 542   0.0000       2.396020        65.1990 
 543   0.0000       2.407699        65.5168 
 544   0.0000       2.414875        65.7121 
 545   0.0000       2.419322        65.8331 
 546   0.0000       2.439627        66.3856 
 547   0.0000       2.458404        66.8966 
 548   0.0000       2.464512        67.0628 
 549   0.0000       2.474914        67.3458 
 550   0.0000       2.483463        67.5785 
 551   0.0000       2.486998        67.6747 
 552   0.0000       2.525113        68.7118 
 553   0.0000       2.527527        68.7775 
 554   0.0000       2.533941        68.9520 
 555   0.0000       2.554216        69.5037 
 556   0.0000       2.558689        69.6255 
 557   0.0000       2.571087        69.9628 
 558   0.0000       2.577763        70.1445 
 559   0.0000       2.581933        70.2580 
 560   0.0000       2.591774        70.5258 
 561   0.0000       2.609029        70.9953 
 562   0.0000       2.627374        71.4945 
 563   0.0000       2.635864        71.7255 
 564   0.0000       2.658221        72.3339 
 565   0.0000       2.669451        72.6395 
 566   0.0000       2.687175        73.1217 
 567   0.0000       2.710412        73.7541 
 568   0.0000       2.715376        73.8891 
 569   0.0000       2.720199        74.0204 
 570   0.0000       2.734699        74.4149 
 571   0.0000       2.743909        74.6656 
 572   0.0000       2.754284        74.9479 
 573   0.0000       2.766229        75.2729 
 574   0.0000       2.773613        75.4739 
 575   0.0000       2.785939        75.8093 
 576   0.0000       2.795994        76.0829 
 577   0.0000       2.806110        76.3581 
 578   0.0000       2.820741        76.7563 
 579   0.0000       2.829463        76.9936 
 580   0.0000       2.856685        77.7343 
 581   0.0000       2.870577        78.1124 
 582   0.0000       2.886437        78.5440 
 583   0.0000       2.891024        78.6688 
 584   0.0000       2.900303        78.9212 
 585   0.0000       2.910719        79.2047 
 586   0.0000       2.927877        79.6716 
 587   0.0000       2.932215        79.7896 
 588   0.0000       2.934293        79.8462 
 589   0.0000       2.943527        80.0974 
 590   0.0000       2.949017        80.2468 
 591   0.0000       2.954233        80.3888 
 592   0.0000       2.971296        80.8531 
 593   0.0000       2.979604        81.0792 
 594   0.0000       2.985585        81.2419 
 595   0.0000       2.987692        81.2992 
 596   0.0000       2.993223        81.4497 
 597   0.0000       2.998006        81.5799 
 598   0.0000       2.999010        81.6072 
 599   0.0000       3.013962        82.0141 
 600   0.0000       3.019683        82.1698 
 601   0.0000       3.026467        82.3544 
 602   0.0000       3.039580        82.7112 
 603   0.0000       3.042056        82.7786 
 604   0.0000       3.048212        82.9461 
 605   0.0000       3.054269        83.1109 
 606   0.0000       3.063225        83.3546 
 607   0.0000       3.069035        83.5127 
 608   0.0000       3.071533        83.5807 
 609   0.0000       3.082069        83.8674 
 610   0.0000       3.093159        84.1691 
 611   0.0000       3.094748        84.2124 
 612   0.0000       3.109532        84.6147 
 613   0.0000       3.110862        84.6509 
 614   0.0000       3.117860        84.8413 
 615   0.0000       3.120393        84.9102 
 616   0.0000       3.122329        84.9629 
 617   0.0000       3.127244        85.0966 
 618   0.0000       3.137837        85.3849 
 619   0.0000       3.142793        85.5197 
 620   0.0000       3.152860        85.7937 
 621   0.0000       3.159263        85.9679 
 622   0.0000       3.170363        86.2700 
 623   0.0000       3.181545        86.5742 
 624   0.0000       3.187386        86.7332 
 625   0.0000       3.192432        86.8705 
 626   0.0000       3.194700        86.9322 
 627   0.0000       3.198122        87.0253 
 628   0.0000       3.210308        87.3569 
 629   0.0000       3.214751        87.4778 
 630   0.0000       3.215290        87.4925 
 631   0.0000       3.222529        87.6895 
 632   0.0000       3.225549        87.7717 
 633   0.0000       3.229594        87.8817 
 634   0.0000       3.238102        88.1132 
 635   0.0000       3.241178        88.1969 
 636   0.0000       3.248776        88.4037 
 637   0.0000       3.262890        88.7877 
 638   0.0000       3.266782        88.8937 
 639   0.0000       3.272413        89.0469 
 640   0.0000       3.289949        89.5241 
 641   0.0000       3.297942        89.7416 
 642   0.0000       3.300579        89.8133 
 643   0.0000       3.303146        89.8832 
 644   0.0000       3.310060        90.0713 
 645   0.0000       3.314860        90.2019 
 646   0.0000       3.322679        90.4147 
 647   0.0000       3.328118        90.5627 
 648   0.0000       3.329911        90.6115 
 649   0.0000       3.335078        90.7521 
 650   0.0000       3.346661        91.0673 
 651   0.0000       3.349044        91.1321 
 652   0.0000       3.351658        91.2032 
 653   0.0000       3.358636        91.3931 
 654   0.0000       3.367173        91.6254 
 655   0.0000       3.369958        91.7012 
 656   0.0000       3.380168        91.9790 
 657   0.0000       3.385628        92.1276 
 658   0.0000       3.387047        92.1662 
 659   0.0000       3.391609        92.2904 
 660   0.0000       3.397531        92.4515 
 661   0.0000       3.399659        92.5094 
 662   0.0000       3.407103        92.7120 
 663   0.0000       3.407826        92.7317 
 664   0.0000       3.412837        92.8680 
 665   0.0000       3.422412        93.1286 
 666   0.0000       3.427970        93.2798 
 667   0.0000       3.432822        93.4118 
 668   0.0000       3.443551        93.7038 
 669   0.0000       3.450161        93.8837 
 670   0.0000       3.456181        94.0475 
 671   0.0000       3.464411        94.2714 
 672   0.0000       3.468409        94.3802 
 673   0.0000       3.473828        94.5277 
 674   0.0000       3.486818        94.8812 
 675   0.0000       3.490316        94.9763 
 676   0.0000       3.498592        95.2015 
 677   0.0000       3.512268        95.5737 
 678   0.0000       3.522914        95.8634 
 679   0.0000       3.527918        95.9995 
 680   0.0000       3.530499        96.0698 
 681   0.0000       3.537137        96.2504 
 682   0.0000       3.540764        96.3491 
 683   0.0000       3.546126        96.4950 
 684   0.0000       3.551902        96.6522 
 685   0.0000       3.556398        96.7745 
 686   0.0000       3.564047        96.9826 
 687   0.0000       3.565691        97.0274 
 688   0.0000       3.568303        97.0985 
 689   0.0000       3.572544        97.2139 
 690   0.0000       3.580324        97.4256 
 691   0.0000       3.580937        97.4422 
 692   0.0000       3.587174        97.6120 
 693   0.0000       3.593077        97.7726 
 694   0.0000       3.603112        98.0457 
 695   0.0000       3.606851        98.1474 
 696   0.0000       3.611006        98.2605 
 697   0.0000       3.626756        98.6891 
 698   0.0000       3.632627        98.8488 
 699   0.0000       3.635775        98.9345 
 700   0.0000       3.640428        99.0611 
 701   0.0000       3.649456        99.3068 
 702   0.0000       3.654343        99.4397 
 703   0.0000       3.658266        99.5465 
 704   0.0000       3.677269       100.0636 
 705   0.0000       3.697339       100.6097 
 706   0.0000       3.702390       100.7472 
 707   0.0000       3.717853       101.1679 
 708   0.0000       3.718802       101.1938 
 709   0.0000       3.735287       101.6423 
 710   0.0000       3.738230       101.7224 
 711   0.0000       3.748729       102.0081 
 712   0.0000       3.754544       102.1663 
 713   0.0000       3.755639       102.1961 
 714   0.0000       3.764359       102.4334 
 715   0.0000       3.770465       102.5996 
 716   0.0000       3.772593       102.6575 
 717   0.0000       3.781909       102.9110 
 718   0.0000       3.789381       103.1143 
 719   0.0000       3.793956       103.2388 
 720   0.0000       3.797489       103.3349 
 721   0.0000       3.804567       103.5275 
 722   0.0000       3.810134       103.6790 
 723   0.0000       3.816925       103.8638 
 724   0.0000       3.818833       103.9157 
 725   0.0000       3.842563       104.5614 
 726   0.0000       3.855701       104.9189 
 727   0.0000       3.859734       105.0287 
 728   0.0000       3.876741       105.4915 
 729   0.0000       3.878348       105.5352 
 730   0.0000       3.883289       105.6697 
 731   0.0000       3.895425       105.9999 
 732   0.0000       3.903965       106.2323 
 733   0.0000       3.907864       106.3384 
 734   0.0000       3.913414       106.4894 
 735   0.0000       3.934447       107.0618 
 736   0.0000       3.962604       107.8279 
 737   0.0000       3.972270       108.0910 
 738   0.0000       3.981337       108.3377 
 739   0.0000       3.988229       108.5252 
 740   0.0000       3.997829       108.7865 
 741   0.0000       4.001157       108.8770 
 742   0.0000       4.003992       108.9542 
 743   0.0000       4.010285       109.1254 
 744   0.0000       4.023062       109.4731 
 745   0.0000       4.033224       109.7496 
 746   0.0000       4.034282       109.7784 
 747   0.0000       4.042410       109.9996 
 748   0.0000       4.046806       110.1192 
 749   0.0000       4.054895       110.3393 
 750   0.0000       4.060960       110.5043 
 751   0.0000       4.067413       110.6799 
 752   0.0000       4.072371       110.8149 
 753   0.0000       4.092290       111.3569 
 754   0.0000       4.094938       111.4289 
 755   0.0000       4.103900       111.6728 
 756   0.0000       4.108307       111.7927 
 757   0.0000       4.114593       111.9638 
 758   0.0000       4.118274       112.0639 
 759   0.0000       4.120706       112.1301 
 760   0.0000       4.139483       112.6411 
 761   0.0000       4.150473       112.9401 
 762   0.0000       4.177091       113.6644 
 763   0.0000       4.193098       114.1000 
 764   0.0000       4.209229       114.5389 
 765   0.0000       4.211392       114.5978 
 766   0.0000       4.216547       114.7381 
 767   0.0000       4.221346       114.8687 
 768   0.0000       4.228919       115.0747 
 769   0.0000       4.232495       115.1720 
 770   0.0000       4.237931       115.3200 
 771   0.0000       4.248430       115.6057 
 772   0.0000       4.249239       115.6277 
 773   0.0000       4.255475       115.7974 
 774   0.0000       4.265957       116.0826 
 775   0.0000       4.267250       116.1178 
 776   0.0000       4.277575       116.3987 
 777   0.0000       4.296182       116.9050 
 778   0.0000       4.301352       117.0457 
 779   0.0000       4.309625       117.2709 
 780   0.0000       4.320468       117.5659 
 781   0.0000       4.326026       117.7171 
 782   0.0000       4.346254       118.2676 
 783   0.0000       4.357927       118.5852 
 784   0.0000       4.365376       118.7879 
 785   0.0000       4.371284       118.9487 
 786   0.0000       4.379729       119.1785 
 787   0.0000       4.386734       119.3691 
 788   0.0000       4.403276       119.8192 
 789   0.0000       4.411700       120.0485 
 790   0.0000       4.417768       120.2136 
 791   0.0000       4.424092       120.3857 
 792   0.0000       4.428528       120.5064 
 793   0.0000       4.434378       120.6656 
 794   0.0000       4.440285       120.8263 
 795   0.0000       4.444997       120.9545 
 796   0.0000       4.454707       121.2187 
 797   0.0000       4.460168       121.3673 
 798   0.0000       4.466282       121.5337 
 799   0.0000       4.470963       121.6611 
 800   0.0000       4.487692       122.1163 
 801   0.0000       4.508531       122.6834 
 802   0.0000       4.511281       122.7582 
 803   0.0000       4.519043       122.9694 
 804   0.0000       4.524982       123.1310 
 805   0.0000       4.531974       123.3213 
 806   0.0000       4.550167       123.8163 
 807   0.0000       4.554623       123.9376 
 808   0.0000       4.561977       124.1377 
 809   0.0000       4.575764       124.5129 
 810   0.0000       4.588090       124.8483 
 811   0.0000       4.593360       124.9917 
 812   0.0000       4.600043       125.1735 
 813   0.0000       4.608148       125.3941 
 814   0.0000       4.610132       125.4481 
 815   0.0000       4.649862       126.5292 
 816   0.0000       4.662369       126.8695 
 817   0.0000       4.671496       127.1179 
 818   0.0000       4.684052       127.4595 
 819   0.0000       4.714054       128.2759 
 820   0.0000       4.727356       128.6379 
 821   0.0000       4.739829       128.9773 
 822   0.0000       4.746415       129.1565 
 823   0.0000       4.751805       129.3032 
 824   0.0000       4.755985       129.4169 
 825   0.0000       4.770211       129.8040 
 826   0.0000       4.782156       130.1291 
 827   0.0000       4.795808       130.5006 
 828   0.0000       4.799523       130.6017 
 829   0.0000       4.811817       130.9362 
 830   0.0000       4.819652       131.1494 
 831   0.0000       4.832215       131.4913 
 832   0.0000       4.836250       131.6011 
 833   0.0000       4.844328       131.8209 
 834   0.0000       4.860116       132.2505 
 835   0.0000       4.870218       132.5254 
 836   0.0000       4.876668       132.7009 
 837   0.0000       4.884687       132.9191 
 838   0.0000       4.896555       133.2420 
 839   0.0000       4.910840       133.6307 
 840   0.0000       4.921260       133.9143 
 841   0.0000       4.947335       134.6238 
 842   0.0000       4.950818       134.7186 
 843   0.0000       4.956920       134.8846 
 844   0.0000       4.978585       135.4742 
 845   0.0000       5.013429       136.4223 
 846   0.0000       5.033530       136.9693 
 847   0.0000       5.036666       137.0547 
 848   0.0000       5.062867       137.7676 
 849   0.0000       5.071322       137.9977 
 850   0.0000       5.079155       138.2108 
 851   0.0000       5.090461       138.5185 
 852   0.0000       5.094292       138.6227 
 853   0.0000       5.098098       138.7263 
 854   0.0000       5.110839       139.0730 
 855   0.0000       5.115463       139.1988 
 856   0.0000       5.125299       139.4665 
 857   0.0000       5.136706       139.7769 
 858   0.0000       5.139271       139.8467 
 859   0.0000       5.148823       140.1066 
 860   0.0000       5.163684       140.5110 
 861   0.0000       5.171548       140.7250 
 862   0.0000       5.185725       141.1108 
 863   0.0000       5.187991       141.1724 
 864   0.0000       5.191557       141.2694 
 865   0.0000       5.201574       141.5420 
 866   0.0000       5.212098       141.8284 
 867   0.0000       5.223115       142.1282 
 868   0.0000       5.225196       142.1848 
 869   0.0000       5.237577       142.5217 
 870   0.0000       5.244595       142.7127 
 871   0.0000       5.250187       142.8649 
 872   0.0000       5.257198       143.0556 
 873   0.0000       5.269107       143.3797 
 874   0.0000       5.275778       143.5612 
 875   0.0000       5.286273       143.8468 
 876   0.0000       5.287736       143.8866 
 877   0.0000       5.289682       143.9396 
 878   0.0000       5.304167       144.3337 
 879   0.0000       5.315877       144.6524 
 880   0.0000       5.331319       145.0726 
 881   0.0000       5.333391       145.1289 
 882   0.0000       5.345895       145.4692 
 883   0.0000       5.348578       145.5422 
 884   0.0000       5.361639       145.8976 
 885   0.0000       5.364933       145.9872 
 886   0.0000       5.373220       146.2127 
 887   0.0000       5.386225       146.5666 
 888   0.0000       5.397131       146.8634 
 889   0.0000       5.406216       147.1106 
 890   0.0000       5.417737       147.4241 
 891   0.0000       5.421018       147.5134 
 892   0.0000       5.431303       147.7933 
 893   0.0000       5.436933       147.9465 
 894   0.0000       5.457544       148.5073 
 895   0.0000       5.464619       148.6998 
 896   0.0000       5.477723       149.0564 
 897   0.0000       5.482583       149.1887 
 898   0.0000       5.489898       149.3877 
 899   0.0000       5.500860       149.6860 
 900   0.0000       5.509016       149.9080 
 901   0.0000       5.518653       150.1702 
 902   0.0000       5.527528       150.4117 
 903   0.0000       5.536229       150.6484 
 904   0.0000       5.542989       150.8324 
 905   0.0000       5.565779       151.4526 
 906   0.0000       5.589574       152.1000 
 907   0.0000       5.599665       152.3746 
 908   0.0000       5.614841       152.7876 
 909   0.0000       5.624422       153.0483 
 910   0.0000       5.670899       154.3130 
 911   0.0000       5.691386       154.8705 
 912   0.0000       5.715490       155.5264 
 913   0.0000       5.736367       156.0945 
 914   0.0000       5.745227       156.3356 
 915   0.0000       5.751586       156.5086 
 916   0.0000       5.759433       156.7221 
 917   0.0000       5.785714       157.4373 
 918   0.0000       5.802971       157.9069 
 919   0.0000       5.806189       157.9944 
 920   0.0000       5.829272       158.6226 
 921   0.0000       5.857089       159.3795 
 922   0.0000       5.919388       161.0747 
 923   0.0000       5.927823       161.3043 
 924   0.0000       5.986094       162.8899 
 925   0.0000       6.012801       163.6166 
 926   0.0000       6.027404       164.0140 
 927   0.0000       6.070339       165.1823 
 928   0.0000       6.154939       167.4844 
 929   0.0000       6.209897       168.9799 
 930   0.0000       6.238150       169.7487 
 931   0.0000       6.270290       170.6233 
 932   0.0000       6.308922       171.6745 
 933   0.0000       6.369287       173.3171 
 934   0.0000       6.395928       174.0420 
 935   0.0000       6.684997       181.9080 
 936   0.0000       6.905232       187.9009 
 937   0.0000      23.456530       638.2846 
 938   0.0000      23.473288       638.7406 
 939   0.0000      23.526084       640.1773 
 940   0.0000      23.581482       641.6847 
 941   0.0000      23.593200       642.0036 
 942   0.0000      23.670775       644.1145 
 943   0.0000      23.740654       646.0160 
 944   0.0000      23.917963       650.8409 
 945   0.0000      24.052354       654.4978 
 946   0.0000      24.062851       654.7835 
 947   0.0000      24.146152       657.0502 
 948   0.0000      24.218182       659.0102 
[...]
      dxz     :     0.006560
      dyz     :     0.002506
      dx2y2   :     0.008253
      dxy     :     0.008179
  7 H s       :     0.684288  s :     0.684288
      pz      :     0.074118  p :     0.283961
      px      :     0.099284
      py      :     0.110559
      dz2     :     0.003402  d :     0.029958
      dxz     :     0.006031
      dyz     :     0.003231
      dx2y2   :     0.008838
      dxy     :     0.008457
  8 N s       :     2.905074  s :     2.905074
      pz      :     0.995402  p :     3.296638
      px      :     1.179450
      py      :     1.121787
      dz2     :     0.086031  d :     0.755721
      dxz     :     0.103184
      dyz     :     0.139195
      dx2y2   :     0.208072
      dxy     :     0.219239
      f0      :     0.001232  f :     0.018109
      f+1     :     0.001176
      f-1     :     0.001999
      f+2     :     0.002604
      f-2     :     0.001815
      f+3     :     0.005912
      f-3     :     0.003371
  9 C s       :     2.608219  s :     2.608219
      pz      :     0.727238  p :     2.475188
      px      :     0.880238
      py      :     0.867711
      dz2     :     0.107444  d :     1.017272
      dxz     :     0.171968
      dyz     :     0.146163
      dx2y2   :     0.326668
      dxy     :     0.265028
      f0      :     0.005650  f :     0.075289
      f+1     :     0.006262
      f-1     :     0.006185
      f+2     :     0.008637
      f-2     :     0.010543
      f+3     :     0.024533
      f-3     :     0.013479
 10 C s       :     2.608347  s :     2.608347
      pz      :     0.732593  p :     2.476740
      px      :     0.859287
      py      :     0.884860
      dz2     :     0.116828  d :     1.022195
      dxz     :     0.175759
      dyz     :     0.151961
      dx2y2   :     0.310280
      dxy     :     0.267366
      f0      :     0.005666  f :     0.075463
      f+1     :     0.007348
      f-1     :     0.005893
      f+2     :     0.011117
      f-2     :     0.009419
      f+3     :     0.021623
      f-3     :     0.014397
 11 N s       :     2.904777  s :     2.904777
      pz      :     0.999230  p :     3.298976
      px      :     1.141027
      py      :     1.158719
      dz2     :     0.093080  d :     0.763541
      dxz     :     0.117448
      dyz     :     0.133809
      dx2y2   :     0.199264
      dxy     :     0.219940
      f0      :     0.001460  f :     0.018147
      f+1     :     0.001612
      f-1     :     0.001491
      f+2     :     0.003284
      f-2     :     0.001418
      f+3     :     0.005141
      f-3     :     0.003741
 12 C s       :     2.639821  s :     2.639821
      pz      :     0.717544  p :     2.500114
      px      :     0.895437
      py      :     0.887134
      dz2     :     0.071992  d :     0.815902
      dxz     :     0.079987
      dyz     :     0.166655
      dx2y2   :     0.261762
      dxy     :     0.235506
      f0      :     0.005354  f :     0.064334
      f+1     :     0.002300
      f-1     :     0.007598
      f+2     :     0.008994
      f-2     :     0.006161
      f+3     :     0.017801
      f-3     :     0.016126
 13 C s       :     2.652785  s :     2.652785
      pz      :     0.727679  p :     2.573186
      px      :     0.903209
      py      :     0.942298
      dz2     :     0.068471  d :     0.674535
      dxz     :     0.081789
      dyz     :     0.116811
      dx2y2   :     0.160135
      dxy     :     0.247328
      f0      :     0.003642  f :     0.044260
      f+1     :     0.003816
      f-1     :     0.003469
      f+2     :     0.007682
      f-2     :     0.003980
      f+3     :     0.012415
      f-3     :     0.009258
 14 C s       :     2.650498  s :     2.650498
      pz      :     0.760154  p :     2.601933
      px      :     0.919531
      py      :     0.922248
      dz2     :     0.075583  d :     0.640874
      dxz     :     0.116942
      dyz     :     0.059120
      dx2y2   :     0.219532
      dxy     :     0.169697
      f0      :     0.002882  f :     0.043496
      f+1     :     0.004383
      f-1     :     0.004080
      f+2     :     0.004518
      f-2     :     0.006995
      f+3     :     0.010879
      f-3     :     0.009758
 15 H s       :     0.680635  s :     0.680635
      pz      :     0.079517  p :     0.286151
      px      :     0.133484
      py      :     0.073150
      dz2     :     0.003723  d :     0.029320
      dxz     :     0.007903
      dyz     :     0.001720
      dx2y2   :     0.007928
      dxy     :     0.008046
 16 H s       :     0.702431  s :     0.702431
      pz      :     0.071811  p :     0.258521
      px      :     0.067131
      py      :     0.119579
      dz2     :     0.002954  d :     0.029393
      dxz     :     0.000474
      dyz     :     0.008092
      dx2y2   :     0.008915
      dxy     :     0.008958
 17 C s       :     2.632901  s :     2.632901
      pz      :     0.757085  p :     2.573430
      px      :     0.881485
      py      :     0.934860
      dz2     :     0.062551  d :     0.663584
      dxz     :     0.062472
      dyz     :     0.129625
      dx2y2   :     0.204385
      dxy     :     0.204551
      f0      :     0.003979  f :     0.043680
      f+1     :     0.002127
      f-1     :     0.004793
      f+2     :     0.005618
      f-2     :     0.005375
      f+3     :     0.012014
      f-3     :     0.009774
 18 H s       :     0.684380  s :     0.684380
      pz      :     0.078733  p :     0.283777
      px      :     0.107573
      py      :     0.097470
      dz2     :     0.004111  d :     0.029956
      dxz     :     0.007795
      dyz     :     0.002253
      dx2y2   :     0.008009
      dxy     :     0.007787
 19 H s       :     0.702103  s :     0.702103
      pz      :     0.072331  p :     0.255342
      px      :     0.093716
      py      :     0.089294
      dz2     :     0.003400  d :     0.028997
      dxz     :     0.004757
      dyz     :     0.004141
      dx2y2   :     0.008490
      dxy     :     0.008210
 20 Pds       :     2.022051  s :     2.022051
      pz      :     2.286870  p :     6.648762
      px      :     2.194167
      py      :     2.167725
      dz2     :     1.574038  d :     8.613878
      dxz     :     1.806082
      dyz     :     1.882470
      dx2y2   :     1.906091
      dxy     :     1.445197
      f0      :     0.009066  f :     0.046040
      f+1     :     0.007452
      f-1     :     0.004947
      f+2     :     0.001205
      f-2     :     0.006475
      f+3     :     0.007002
      f-3     :     0.009893
      g0      :     0.000084  g :     0.000572
      g+1     :     0.000086
      g-1     :     0.000058
      g+2     :     0.000018
      g-2     :     0.000068
      g+3     :     0.000037
      g-3     :     0.000050
      g+4     :     0.000096
      g-4     :     0.000076
 21 C s       :     2.702169  s :     2.702169
      pz      :     0.963441  p :     2.751893
      px      :     0.896465
      py      :     0.891987
      dz2     :     0.081290  d :     0.497083
      dxz     :     0.108920
      dyz     :     0.118573
      dx2y2   :     0.072720
      dxy     :     0.115580
      f0      :     0.003197  f :     0.022571
      f+1     :     0.002963
      f-1     :     0.002800
      f+2     :     0.002307
      f-2     :     0.004763
      f+3     :     0.003196
      f-3     :     0.003345
 22 H s       :     0.715960  s :     0.715960
      pz      :     0.114546  p :     0.345107
      px      :     0.108835
      py      :     0.121726
      dz2     :     0.006852  d :     0.030625
      dxz     :     0.004721
      dyz     :     0.007488
      dx2y2   :     0.005671
      dxy     :     0.005893
 23 H s       :     0.720329  s :     0.720329
      pz      :     0.160692  p :     0.365672
      px      :     0.103192
      py      :     0.101788
      dz2     :     0.008293  d :     0.030748
      dxz     :     0.007739
      dyz     :     0.007911
      dx2y2   :     0.002973
      dxy     :     0.003832
 24 H s       :     0.710343  s :     0.710343
      pz      :     0.107323  p :     0.343078
      px      :     0.117565
      py      :     0.118191
      dz2     :     0.005633  d :     0.030985
      dxz     :     0.006917
      dyz     :     0.004852
      dx2y2   :     0.006948
      dxy     :     0.006635
 25 C s       :     2.703587  s :     2.703587
      pz      :     0.965913  p :     2.750219
      px      :     0.909190
      py      :     0.875116
      dz2     :     0.114928  d :     0.504175
      dxz     :     0.084925
      dyz     :     0.105027
      dx2y2   :     0.103230
      dxy     :     0.096065
      f0      :     0.004510  f :     0.022679
      f+1     :     0.001654
      f-1     :     0.002029
      f+2     :     0.003998
      f-2     :     0.003734
      f+3     :     0.003730
      f-3     :     0.003024
 26 H s       :     0.715396  s :     0.715396
      pz      :     0.117038  p :     0.354801
      px      :     0.134888
      py      :     0.102874
      dz2     :     0.005747  d :     0.031014
      dxz     :     0.008114
      dyz     :     0.002317
      dx2y2   :     0.007376
      dxy     :     0.007460
 27 H s       :     0.716980  s :     0.716980
      pz      :     0.104554  p :     0.359671
      px      :     0.122078
      py      :     0.133038
      dz2     :     0.005766  d :     0.030545
      dxz     :     0.002863
      dyz     :     0.007284
      dx2y2   :     0.007512
      dxy     :     0.007121
 28 H s       :     0.715570  s :     0.715570
      pz      :     0.145867  p :     0.338036
      px      :     0.097059
      py      :     0.095111
      dz2     :     0.010309  d :     0.030693
      dxz     :     0.009670
      dyz     :     0.009435
      dx2y2   :     0.000410
      dxy     :     0.000869
 29 I s       :     3.755241  s :     3.755241
      pz      :     3.509615  p :    11.151150
      px      :     3.803814
      py      :     3.837721
      dz2     :     2.035819  d :    10.129565
      dxz     :     2.039112
      dyz     :     2.035962
      dx2y2   :     2.007347
      dxy     :     2.011323
      f0      :     0.001499  f :     0.004550
      f+1     :     0.001334
      f-1     :     0.001099
      f+2     :     0.000240
      f-2     :     0.000312
      f+3     :     0.000022
      f-3     :     0.000044
 30 C s       :     2.710775  s :     2.710775
      pz      :     0.854027  p :     2.756311
      px      :     0.946863
      py      :     0.955421
      dz2     :     0.095676  d :     0.433863
      dxz     :     0.114018
      dyz     :     0.062540
      dx2y2   :     0.053106
      dxy     :     0.108522
      f0      :     0.003161  f :     0.021336
      f+1     :     0.002829
      f-1     :     0.003901
      f+2     :     0.003830
      f-2     :     0.002388
      f+3     :     0.003495
      f-3     :     0.001733
 31 H s       :     0.726395  s :     0.726395
      pz      :     0.099296  p :     0.332889
      px      :     0.096014
      py      :     0.137578
      dz2     :     0.002899  d :     0.030583
      dxz     :     0.001610
      dyz     :     0.008264
      dx2y2   :     0.008551
      dxy     :     0.009259
 32 H s       :     0.729998  s :     0.729998
      pz      :     0.100392  p :     0.328579
      px      :     0.112917
      py      :     0.115269
      dz2     :     0.003370  d :     0.030452
      dxz     :     0.005447
      dyz     :     0.004738
      dx2y2   :     0.009370
      dxy     :     0.007526
 33 H s       :     0.713850  s :     0.713850
      pz      :     0.118019  p :     0.346580
      px      :     0.134113
      py      :     0.094448
      dz2     :     0.007002  d :     0.031008
      dxz     :     0.008843
      dyz     :     0.003054
      dx2y2   :     0.005366
      dxy     :     0.006744


                      *****************************
                      * MAYER POPULATION ANALYSIS *
                      *****************************

  NA   - Mulliken gross atomic population
  ZA   - Total nuclear charge
  QA   - Mulliken gross atomic charge
  VA   - Mayer's total valence
  BVA  - Mayer's bonded valence
  FA   - Mayer's free valence

  ATOM       NA         ZA         QA         VA         BVA        FA
  0 C      5.8052     6.0000     0.1948     3.2677     3.2677    -0.0000
  1 C      6.4022     6.0000    -0.4022     3.2494     3.2494     0.0000
  2 C      6.1463     6.0000    -0.1463     3.2670     3.2670     0.0000
  3 C      6.4671     6.0000    -0.4671     2.5386     2.5386     0.0000
  4 H      1.0031     1.0000    -0.0031     1.0686     1.0686     0.0000
  5 H      0.8282     1.0000     0.1718     0.9766     0.9766     0.0000
  6 H      0.8201     1.0000     0.1799     0.9493     0.9493    -0.0000
  7 H      0.9583     1.0000     0.0417     1.0425     1.0425     0.0000
  8 N      6.6029     7.0000     0.3971     2.7944     2.7944     0.0000
  9 C      5.2821     6.0000     0.7179     2.3556     2.3556     0.0000
 10 C      5.8030     6.0000     0.1970     2.8843     2.8843     0.0000
 11 N      6.4633     7.0000     0.5367     2.6522     2.6522     0.0000
 12 C      5.8844     6.0000     0.1156     3.3964     3.3964    -0.0000
 13 C      6.2077     6.0000    -0.2077     3.3086     3.3086    -0.0000
 14 C      6.3553     6.0000    -0.3553     3.2118     3.2118     0.0000
 15 H      0.9868     1.0000     0.0132     1.1152     1.1152     0.0000
 16 H      0.8393     1.0000     0.1607     0.9786     0.9786     0.0000
 17 C      6.4536     6.0000    -0.4536     2.4692     2.4692     0.0000
 18 H      0.9563     1.0000     0.0437     1.0246     1.0246     0.0000
 19 H      0.8236     1.0000     0.1764     0.9520     0.9520    -0.0000
 20 Pd    18.5241    18.0000    -0.5241     4.2822     4.2822    -0.0000
 21 C      6.9868     6.0000    -0.9868     3.2887     3.2887     0.0000
 22 H      0.6326     1.0000     0.3674     1.0478     1.0478     0.0000
 23 H      0.7678     1.0000     0.2322     1.3561     1.3561     0.0000
 24 H      0.5966     1.0000     0.4034     0.9514     0.9514     0.0000
 25 C      6.8980     6.0000    -0.8980     3.2585     3.2585    -0.0000
 26 H      0.6583     1.0000     0.3417     1.1024     1.1024     0.0000
 27 H      0.7244     1.0000     0.2756     1.1407     1.1407    -0.0000
 28 H      0.6754     1.0000     0.3246     1.1874     1.1874     0.0000
 29 I     25.4404    25.0000    -0.4404     0.9857     0.9857     0.0000
 30 C      6.9937     6.0000    -0.9937     3.2380     3.2380     0.0000
 31 H      0.6863     1.0000     0.3137     1.2010     1.2010    -0.0000
 32 H      0.7312     1.0000     0.2688     1.3092     1.3092     0.0000
 33 H      0.5954     1.0000     0.4046     1.0037     1.0037     0.0000

  Mayer bond orders larger than 0.100000
B(  0-C ,  1-C ) :   1.1437 B(  0-C ,  4-H ) :   1.0854 B(  0-C ,  8-N ) :   1.4874 
B(  0-C , 20-Pd) :  -0.1195 B(  1-C ,  2-C ) :   1.1140 B(  1-C ,  5-H ) :   1.0456 
B(  1-C ,  8-N ) :  -0.1757 B(  1-C , 20-Pd) :   0.1230 B(  2-C ,  3-C ) :   1.1466 
B(  2-C ,  6-H ) :   1.0458 B(  2-C ,  8-N ) :   0.1286 B(  3-C ,  7-H ) :   1.2180 
B(  3-C ,  8-N ) :  -0.3138 B(  3-C ,  9-C ) :   0.6582 B(  3-C , 10-C ) :  -0.3139 
B(  3-C , 20-Pd) :   0.1610 B(  7-H ,  9-C ) :  -0.2715 B(  8-N ,  9-C ) :   1.3972 
B(  8-N , 10-C ) :   0.1732 B(  8-N , 11-N ) :  -0.1181 B(  8-N , 20-Pd) :   0.3491 
B(  9-C , 10-C ) :   1.0271 B(  9-C , 11-N ) :   0.2276 B(  9-C , 17-C ) :  -0.4298 
B(  9-C , 20-Pd) :  -0.1728 B(  9-C , 29-I ) :  -0.1011 B( 10-C , 11-N ) :   1.3660 
B( 10-C , 17-C ) :   0.7883 B( 10-C , 18-H ) :  -0.2787 B( 11-N , 12-C ) :   1.4851 
B( 11-N , 13-C ) :   0.1293 B( 11-N , 14-C ) :  -0.2208 B( 11-N , 17-C ) :  -0.3588 
B( 11-N , 20-Pd) :   0.2876 B( 11-N , 30-C ) :  -0.1105 B( 12-C , 14-C ) :   1.1477 
B( 12-C , 15-H ) :   1.1148 B( 13-C , 14-C ) :   1.1202 B( 13-C , 17-C ) :   1.1431 
B( 13-C , 19-H ) :   1.0512 B( 14-C , 16-H ) :   1.0494 B( 14-C , 20-Pd) :   0.1046 
B( 17-C , 18-H ) :   1.2094 B( 17-C , 20-Pd) :   0.1746 B( 20-Pd, 21-C ) :   0.7775 
B( 20-Pd, 25-C ) :   0.7333 B( 20-Pd, 29-I ) :   0.9115 B( 20-Pd, 30-C ) :   0.6831 
B( 20-Pd, 32-H ) :   0.1248 B( 21-C , 22-H ) :   0.9111 B( 21-C , 23-H ) :   1.0467 
B( 21-C , 24-H ) :   0.8546 B( 21-C , 29-I ) :  -0.1057 B( 21-C , 30-C ) :  -0.1177 
B( 23-H , 29-I ) :   0.1120 B( 25-C , 26-H ) :   0.9618 B( 25-C , 27-H ) :   0.9237 
B( 25-C , 28-H ) :   0.9809 B( 25-C , 30-C ) :  -0.1235 B( 29-I , 30-C ) :   0.1276 
B( 30-C , 31-H ) :   0.9504 B( 30-C , 32-H ) :   1.0044 B( 30-C , 33-H ) :   0.8971 


-------
TIMINGS
-------

Total SCF time: 0 days 0 hours 36 min 40 sec 

Total time                  ....    2200.698 sec
Sum of individual times     ....    2198.427 sec  ( 99.9%)

Fock matrix formation       ....    2184.150 sec  ( 99.2%)
  XC integration            ....      31.273 sec  (  1.4% of F)
    Basis function eval.    ....       2.411 sec  (  7.7% of XC)
    Density eval.           ....      11.738 sec  ( 37.5% of XC)
    XC-Functional eval.     ....       0.229 sec  (  0.7% of XC)
    XC-Potential eval.      ....      11.971 sec  ( 38.3% of XC)
Diagonalization             ....       6.455 sec  (  0.3%)
Density matrix formation    ....       0.219 sec  (  0.0%)
Population analysis         ....       0.192 sec  (  0.0%)
Initial guess               ....       3.392 sec  (  0.2%)
Orbital Transformation      ....       0.000 sec  (  0.0%)
Orbital Orthonormalization  ....       0.000 sec  (  0.0%)
DIIS solution               ....       2.934 sec  (  0.1%)
Grid generation             ....       1.085 sec  (  0.0%)

-------------------------   --------------------
FINAL SINGLE POINT ENERGY     -1040.645111264287
-------------------------   --------------------


                            ***************************************
                            *     ORCA property calculations      *
                            ***************************************

                                    ---------------------
                                    Active property flags
                                    ---------------------
   (+) Dipole Moment


------------------------------------------------------------------------------
                       ORCA ELECTRIC PROPERTIES CALCULATION
------------------------------------------------------------------------------

Dipole Moment Calculation                       ... on
Quadrupole Moment Calculation                   ... off
Polarizability Calculation                      ... off
GBWName                                         ... MOR29_pr11.gbw
Electron density file                           ... MOR29_pr11.scfp
The origin for moment calculation is the CENTER OF MASS  = ( 0.195003,  0.004756 -0.176087)

-------------
DIPOLE MOMENT
-------------
                                X             Y             Z
Electronic contribution:    145.15010      -3.88287     -70.62357
Nuclear contribution   :   -148.61747       4.04670      71.83695
                        -----------------------------------------
Total Dipole Moment    :     -3.46737       0.16383       1.21338
                        -----------------------------------------
Magnitude (a.u.)       :      3.67720
Magnitude (Debye)      :      9.34669



--------------------
Rotational spectrum 
--------------------
 
Rotational constants in cm-1:     0.010327     0.008787     0.007812 
Rotational constants in MHz :   309.600948   263.417504   234.204311 

 Dipole components along the rotational axes: 
x,y,z [a.u.] :    -3.602726    -0.200042     0.708612 
x,y,z [Debye]:    -9.157401    -0.508467     1.801149 

 

Timings for individual modules:

Sum of individual times         ...     2208.209 sec (=  36.803 min)
GTO integral calculation        ...        7.093 sec (=   0.118 min)   0.3 %
SCF iterations                  ...     2201.116 sec (=  36.685 min)  99.7 %
                             ****ORCA TERMINATED NORMALLY****
TOTAL RUN TIME: 0 days 0 hours 36 minutes 49 seconds 37 msec
