
                                 *****************
                                 * O   R   C   A *
                                 *****************

           --- An Ab Initio, DFT and Semiempirical electronic structure package ---

                  #######################################################
                  #                        -***-                        #
                  #          Department of theory and spectroscopy      #
                  #               Directorship: Frank Neese             #
                  #        Max Planck Institute fuer Kohlenforschung    #
                  #                Kaiser Wilhelm Platz 1               #
                  #                 D-45470 Muelheim/Ruhr               #
                  #                      Germany                        #
                  #                                                     #
                  #                  All rights reserved                #
                  #                        -***-                        #
                  #######################################################


                         Program Version 4.2.0 -  RELEASE  -


 With contributions from (in alphabetic order):
   Daniel Aravena         : Magnetic Suceptibility
   Michael Atanasov       : Ab Initio Ligand Field Theory (pilot matlab implementation)
   Alexander A. Auer      : GIAO ZORA, VPT2
   Ute Becker             : Parallelization
   Giovanni Bistoni       : ED, misc. LED, open-shell LED, HFLED
   Martin Brehm           : Molecular dynamics
   Dmytro Bykov           : SCF Hessian
   Vijay G. Chilkuri      : MRCI spin determinant printing, contributions to CSF-ICE
   Dipayan Datta          : RHF DLPNO-CCSD density
   Achintya Kumar Dutta   : EOM-CC, STEOM-CC
   Dmitry Ganyushin       : Spin-Orbit,Spin-Spin,Magnetic field MRCI
   Miquel Garcia          : C-PCM Hessian, Gaussian charge scheme
   Yang Guo               : DLPNO-NEVPT2, CIM, IAO-localization
   Andreas Hansen         : Spin unrestricted coupled pair/coupled cluster methods
   Benjamin Helmich-Paris : CASSCF linear response (MC-RPA)
   Lee Huntington         : MR-EOM, pCC
   Robert Izsak           : Overlap fitted RIJCOSX, COSX-SCS-MP3, EOM
   Christian Kollmar      : KDIIS, OOCD, Brueckner-CCSD(T), CCSD density
   Simone Kossmann        : Meta GGA functionals, TD-DFT gradient, OOMP2, MP2 Hessian
   Martin Krupicka        : AUTO-CI
   Lucas Lang             : DCDCAS
   Dagmar Lenk            : GEPOL surface, SMD
   Dimitrios Liakos       : Extrapolation schemes; Compound Job, initial MDCI parallelization
   Dimitrios Manganas     : Further ROCIS development; embedding schemes
   Dimitrios Pantazis     : SARC Basis sets
   Taras Petrenko         : DFT Hessian,TD-DFT gradient, ASA, ECA, R-Raman, ABS, FL, XAS/XES, NRVS
   Peter Pinski           : DLPNO-MP2, DLPNO-MP2 Gradient
   Christoph Reimann      : Effective Core Potentials
   Marius Retegan         : Local ZFS, SOC
   Christoph Riplinger    : Optimizer, TS searches, QM/MM, DLPNO-CCSD(T), (RO)-DLPNO pert. Triples
   Tobias Risthaus        : Range-separated hybrids, TD-DFT gradient, RPA, STAB
   Michael Roemelt        : Original ROCIS implementation
   Masaaki Saitow         : Open-shell DLPNO-CCSD energy and density
   Barbara Sandhoefer     : DKH picture change effects
   Avijit Sen             : IP-ROCIS
   Kantharuban Sivalingam : CASSCF convergence, NEVPT2, FIC-MRCI
   Bernardo de Souza      : ESD, SOC TD-DFT
   Georgi Stoychev        : AutoAux, RI-MP2 NMR
   Willem Van den Heuvel  : Paramagnetic NMR
   Boris Wezisla          : Elementary symmetry handling
   Frank Wennmohs         : Technical directorship


 We gratefully acknowledge several colleagues who have allowed us to
 interface, adapt or use parts of their codes:
   Stefan Grimme, W. Hujo, H. Kruse,             : VdW corrections, initial TS optimization,
                  C. Bannwarth                     DFT functionals, gCP, sTDA/sTD-DF
   Ed Valeev, F. Pavosevic, A. Kumar             : LibInt (2-el integral package), F12 methods
   Garnet Chan, S. Sharma, J. Yang, R. Olivares  : DMRG
   Ulf Ekstrom                                   : XCFun DFT Library
   Mihaly Kallay                                 : mrcc  (arbitrary order and MRCC methods)
   Andreas Klamt, Michael Diedenhofen            : otool_cosmo (COSMO solvation model)
   Jiri Pittner, Ondrej Demel                    : Mk-CCSD
   Frank Weinhold                                : gennbo (NPA and NBO analysis)
   Christopher J. Cramer and Donald G. Truhlar   : smd solvation model
   Lars Goerigk                                  : TD-DFT with DH, B97 family of functionals
   V. Asgeirsson, H. Jonsson                     : NEB implementation
   FAccTs GmbH                                   : IRC, NEB, NEB-TS, Multilevel, MM, QM/MM, CI optimization
   S Lehtola, MJT Oliveira, MAL Marques          : LibXC Library


 Your calculation uses the libint2 library for the computation of 2-el integrals
 For citations please refer to: http://libint.valeyev.net

 Your ORCA version has been built with support for libXC version: 4.2.3
 For citations please refer to: https://tddft.org/programs/libxc/

 This ORCA versions uses:
   CBLAS   interface :  Fast vector & matrix operations
   LAPACKE interface :  Fast linear algebra routines
   SCALAPACK package :  Parallel linear algebra routines


Your calculation utilizes the DFT-NL dispersion correction.
Cite in your paper:
Vydrov, O. A.; Van Voorhis, T. J. Chem. Phys. 2010, 133, 244103
Hujo, W.; Grimme, S. J. Chem. Theory Comput. 2011, 7, 3866 
   

----- Orbital basis set information -----
Your calculation utilizes the basis: def2-TZVPPD
   F. Weigend and R. Ahlrichs, Phys. Chem. Chem. Phys. 7, 3297 (2005).
   D. Rappoport and F. Furche, J. Chem. Phys. 133 134105 (2010).

----- AuxJK basis set information -----
Your calculation utilizes the auxiliary basis: def2/JK
   H-Ba, Hf-Rn: F. Weigend, J. Comput. Chem. 29, 167 (2008).

================================================================================
                                        WARNINGS
                       Please study these warnings very carefully!
================================================================================


INFO   : the flag for use of LIBINT has been found!

================================================================================
                                       INPUT FILE
================================================================================
NAME = MOR24_pme3.in
|  1> #
|  2> # MOR24_pme3 wB97M-V/Def2-TZVPPD
|  3> #
|  4> ! wb97m-v def2-tzvppd def2/jk grid4 nofinalgrid
|  5> 
|  6> *xyz 0 1
|  7> P        0.000014   -0.000022   -0.608033 
|  8> C        1.496142   -0.644859    0.281510 
|  9> H        1.381991   -0.595756    1.371521 
| 10> H        2.374450   -0.059896   -0.010082 
| 11> H        1.674284   -1.684941   -0.010215 
| 12> C       -0.189596    1.618079    0.281483 
| 13> H       -0.175035    1.494773    1.371519 
| 14> H       -1.135286    2.086341   -0.010098 
| 15> H        0.622176    2.292253   -0.010285 
| 16> C       -1.306577   -0.973225    0.281488 
| 17> H       -1.206743   -0.899098    1.371498 
| 18> H       -1.239562   -2.026308   -0.010273 
| 19> H       -2.296301   -0.607013   -0.009976 
| 20> *
| 21> 
| 22> %maxcore 5000
| 23> 
| 24> %pal
| 25> nprocs = 24
| 26> end
| 27> 
| 28> 
| 29>                          ****END OF INPUT****
================================================================================

                       ****************************
                       * Single Point Calculation *
                       ****************************

---------------------------------
CARTESIAN COORDINATES (ANGSTROEM)
---------------------------------
  P      0.000014   -0.000022   -0.608033
  C      1.496142   -0.644859    0.281510
  H      1.381991   -0.595756    1.371521
  H      2.374450   -0.059896   -0.010082
  H      1.674284   -1.684941   -0.010215
  C     -0.189596    1.618079    0.281483
  H     -0.175035    1.494773    1.371519
  H     -1.135286    2.086341   -0.010098
  H      0.622176    2.292253   -0.010285
  C     -1.306577   -0.973225    0.281488
  H     -1.206743   -0.899098    1.371498
  H     -1.239562   -2.026308   -0.010273
  H     -2.296301   -0.607013   -0.009976

----------------------------
CARTESIAN COORDINATES (A.U.)
----------------------------
  NO LB      ZA    FRAG     MASS         X           Y           Z
   0 P    15.0000    0    30.974    0.000026   -0.000042   -1.149016
   1 C     6.0000    0    12.011    2.827299   -1.218607    0.531977
   2 H     1.0000    0     1.008    2.611585   -1.125816    2.591799
   3 H     1.0000    0     1.008    4.487060   -0.113187   -0.019052
   4 H     1.0000    0     1.008    3.163938   -3.184077   -0.019304
   5 C     6.0000    0    12.011   -0.358285    3.057726    0.531926
   6 H     1.0000    0     1.008   -0.330768    2.824712    2.591795
   7 H     1.0000    0     1.008   -2.145380    3.942613   -0.019082
   8 H     1.0000    0     1.008    1.175742    4.331730   -0.019436
   9 C     6.0000    0    12.011   -2.469073   -1.839129    0.531935
  10 H     1.0000    0     1.008   -2.280414   -1.699049    2.591756
  11 H     1.0000    0     1.008   -2.342433   -3.829167   -0.019413
  12 H     1.0000    0     1.008   -4.339380   -1.147088   -0.018852

--------------------------------
INTERNAL COORDINATES (ANGSTROEM)
--------------------------------
 P      0   0   0     0.000000000000     0.00000000     0.00000000
 C      1   0   0     1.856205941646     0.00000000     0.00000000
 H      2   1   0     1.097071344777   112.13110714     0.00000000
 H      2   1   3     1.094820783826   109.47323922   239.00231603
 H      2   1   3     1.094809853131   109.48040574   121.00380486
 C      1   2   3     1.856190052919    98.94678480    50.31151194
 H      6   1   2     1.097084715805   112.13583001   309.70020222
 H      6   1   2     1.094814302202   109.47860882   188.69787616
 H      6   1   2     1.094811823139   109.47230593    70.69848452
 C      1   2   3     1.856219741822    98.94955960   309.70038817
 H     10   1   2     1.097079504769   112.12590837    50.29339066
 H     10   1   2     1.094805597462   109.48243156   289.29142906
 H     10   1   2     1.094813266460   109.47414643   171.28736402

---------------------------
INTERNAL COORDINATES (A.U.)
---------------------------
 P      0   0   0     0.000000000000     0.00000000     0.00000000
 C      1   0   0     3.507720877868     0.00000000     0.00000000
 H      2   1   0     2.073164391001   112.13110714     0.00000000
 H      2   1   3     2.068911447156   109.47323922   239.00231603
 H      2   1   3     2.068890791136   109.48040574   121.00380486
 C      1   2   3     3.507690852526    98.94678480    50.31151194
 H      6   1   2     2.073189658582   112.13583001   309.70020222
 H      6   1   2     2.068899198661   109.47860882   188.69787616
 H      6   1   2     2.068894513911   109.47230593    70.69848452
 C      1   2   3     3.507746956422    98.94955960   309.70038817
 H     10   1   2     2.073179811152   112.12590837    50.29339066
 H     10   1   2     2.068882749088   109.48243156   289.29142906
 H     10   1   2     2.068897241392   109.47414643   171.28736402

---------------------
BASIS SET INFORMATION
---------------------
There are 3 groups of distinct atoms

 Group   1 Type P   : 15s9p4d1f contracted to 6s5p4d1f pattern {732111/51111/1111/1}
 Group   2 Type C   : 12s6p3d1f contracted to 6s3p3d1f pattern {621111/411/111/1}
 Group   3 Type H   : 5s3p1d contracted to 3s3p1d pattern {311/111/1}

Atom   0P    basis set group =>   1
Atom   1C    basis set group =>   2
Atom   2H    basis set group =>   3
Atom   3H    basis set group =>   3
Atom   4H    basis set group =>   3
Atom   5C    basis set group =>   2
Atom   6H    basis set group =>   3
Atom   7H    basis set group =>   3
Atom   8H    basis set group =>   3
Atom   9C    basis set group =>   2
Atom  10H    basis set group =>   3
Atom  11H    basis set group =>   3
Atom  12H    basis set group =>   3
----------------------------------
AUXILIARY/JK BASIS SET INFORMATION
----------------------------------
There are 3 groups of distinct atoms

 Group   1 Type P   : 16s12p10d4f1g contracted to 13s11p9d4f1g pattern {4111111111111/21111111111/211111111/1111/1}
 Group   2 Type C   : 14s10p6d2f1g contracted to 10s8p5d1f1g pattern {5111111111/31111111/21111/2/1}
 Group   3 Type H   : 4s2p2d contracted to 2s2p2d pattern {31/11/11}

Atom   0P    basis set group =>   1
Atom   1C    basis set group =>   2
Atom   2H    basis set group =>   3
Atom   3H    basis set group =>   3
Atom   4H    basis set group =>   3
Atom   5C    basis set group =>   2
Atom   6H    basis set group =>   3
Atom   7H    basis set group =>   3
Atom   8H    basis set group =>   3
Atom   9C    basis set group =>   2
Atom  10H    basis set group =>   3
Atom  11H    basis set group =>   3
Atom  12H    basis set group =>   3


           ************************************************************
           *        Program running with 24 parallel MPI-processes    *
           *              working on a common directory               *
           ************************************************************
------------------------------------------------------------------------------
                           ORCA GTO INTEGRAL CALCULATION
------------------------------------------------------------------------------

                         BASIS SET STATISTICS AND STARTUP INFO

 # of primitive gaussian shells          ...  176
 # of primitive gaussian functions       ...  396
 # of contracted shells                  ...  118
 # of contracted basis functions         ...  312
 Highest angular momentum                ...    3
 Maximum contraction depth               ...    7
 Integral package used                   ... LIBINT
 Integral threshhold            Thresh   ...  1.000e-10
 Primitive cut-off              TCut     ...  1.000e-11


------------------------------ INTEGRAL EVALUATION ----------------------------


 * One electron integrals 
 Pre-screening matrix                    ... done
 Shell pair data                         ... done (   0.002 sec)



           ************************************************************
           *        Program running with 24 parallel MPI-processes    *
           *              working on a common directory               *
           ************************************************************
-------------------------------------------------------------------------------
                                 ORCA SCF
-------------------------------------------------------------------------------

------------
SCF SETTINGS
------------
Hamiltonian:
 Density Functional     Method          .... DFT(GTOs)
 Exchange Functional    Exchange        .... WB97M-V
 Correlation Functional Correlation     .... WB97M-V
 Gradients option       PostSCFGGA      .... off
 Hybrid DFT is turned on
   Fraction HF Exchange ScalHFX         ....  0.150000
   Scaling of DF-GGA-X  ScalDFX         ....  0.000000
   Scaling of DF-GGA-C  ScalDFC         ....  1.000000
   Scaling of DF-LDA-C  ScalLDAC        ....  1.000000
   Perturbative correction              ....  0.000000
   Density functional embedding theory  .... OFF
 Long-range corrected/Screened/Range-Separated Hybrid DFT is turned on
   Amount of maximum screened exact exchange              ....  0.850000
   Range separation parameter mu (erf(mu*r12)/r12)        ....  0.300000
   NL short-range parameter             ....  6.000000
   NL long-range parameter              ....  0.010000


General Settings:
 Integral files         IntName         .... MOR24_pme3
 Hartree-Fock type      HFTyp           .... RHF
 Total Charge           Charge          ....    0
 Multiplicity           Mult            ....    1
 Number of Electrons    NEL             ....   42
 Basis Dimension        Dim             ....  312
 Nuclear Repulsion      ENuc            ....    176.7484710169 Eh

Convergence Acceleration:
 DIIS                   CNVDIIS         .... on
   Start iteration      DIISMaxIt       ....    12
   Startup error        DIISStart       ....  0.200000
   # of expansion vecs  DIISMaxEq       ....     5
   Bias factor          DIISBfac        ....   1.050
   Max. coefficient     DIISMaxC        ....  10.000
 Newton-Raphson         CNVNR           .... off
 SOSCF                  CNVSOSCF        .... on
   Start iteration      SOSCFMaxIt      ....   150
   Startup grad/error   SOSCFStart      ....  0.003300
 Level Shifting         CNVShift        .... on
   Level shift para.    LevelShift      ....    0.2500
   Turn off err/grad.   ShiftErr        ....    0.0010
 Zerner damping         CNVZerner       .... off
 Static damping         CNVDamp         .... on
   Fraction old density DampFac         ....    0.7000
   Max. Damping (<1)    DampMax         ....    0.9800
   Min. Damping (>=0)   DampMin         ....    0.0000
   Turn off err/grad.   DampErr         ....    0.1000
 Fernandez-Rico         CNVRico         .... off

SCF Procedure:
 Maximum # iterations   MaxIter         ....   125
 SCF integral mode      SCFMode         .... Direct
   Integral package                     .... LIBINT
 Reset frequency        DirectResetFreq ....    20
 Integral Threshold     Thresh          ....  1.000e-10 Eh
 Primitive CutOff       TCut            ....  1.000e-11 Eh

Convergence Tolerance:
 Convergence Check Mode ConvCheckMode   .... Total+1el-Energy
 Convergence forced     ConvForced      .... 0
 Energy Change          TolE            ....  1.000e-06 Eh
 1-El. energy change                    ....  1.000e-03 Eh
 Orbital Gradient       TolG            ....  5.000e-05
 Orbital Rotation angle TolX            ....  5.000e-05
 DIIS Error             TolErr          ....  1.000e-06


Diagonalization of the overlap matrix:
Smallest eigenvalue                        ... 2.657e-05
Time for diagonalization                   ...    0.016 sec
Threshold for overlap eigenvalues          ... 1.000e-08
Number of eigenvalues below threshold      ... 0
Time for construction of square roots      ...    0.012 sec
Total time needed                          ...    0.028 sec

-------------------
DFT GRID GENERATION
-------------------

General Integration Accuracy     IntAcc      ...  4.670
Radial Grid Type                 RadialGrid  ... Gauss-Chebyshev
Angular Grid (max. acc.)         AngularGrid ... Lebedev-302
Angular grid pruning method      GridPruning ... 3 (G Style)
Weight generation scheme         WeightScheme... Becke
Basis function cutoff            BFCut       ...    1.0000e-10
Integration weight cutoff        WCut        ...    1.0000e-14
Grids for H and He will be reduced by one unit

# of grid points (after initial pruning)     ...  56028 (   0.0 sec)
# of grid points (after weights+screening)   ...  52082 (   0.0 sec)
nearest neighbour list constructed           ...    0.0 sec
Grid point re-assignment to atoms done       ...    0.0 sec
Grid point division into batches done        ...    0.2 sec
Reduced shell lists constructed in    0.2 sec

Total number of grid points                  ...    52082
Total number of batches                      ...      819
Average number of points per batch           ...       63
Average number of grid points per atom       ...     4006
Average number of shells per batch           ...    78.58 (66.60%)
Average number of basis functions per batch  ...   209.31 (67.09%)
Average number of large shells per batch     ...    64.28 (81.80%)
Average number of large basis fcns per batch ...   169.89 (81.17%)
Maximum spatial batch extension              ...  14.82, 16.68,  9.68 au
Average spatial batch extension              ...   0.14,  0.14,  0.12 au

Time for grid setup =    0.314 sec

------------------------------
INITIAL GUESS: MODEL POTENTIAL
------------------------------
Loading Hartree-Fock densities                     ... done
Calculating cut-offs                               ... done
Setting up the integral package                    ... done
Initializing the effective Hamiltonian             ... done
Starting the Coulomb interaction                   ... done (   0.0 sec)
Reading the grid                                   ... done
Mapping shells                                     ... done
Starting the XC term evaluation                    ... done (   0.1 sec)
  promolecular density results
     # of electrons  =     41.995566421
     EX              =    -40.490637064
     EC              =     -1.423849268
     EX+EC           =    -41.914486333
Transforming the Hamiltonian                       ... done (   0.0 sec)
Diagonalizing the Hamiltonian                      ... done (   0.0 sec)
Back transforming the eigenvectors                 ... done (   0.0 sec)
Now organizing SCF variables                       ... done
                      ------------------
                      INITIAL GUESS DONE (   0.5 sec)
                      ------------------
--------------
SCF ITERATIONS
--------------
ITER       Energy         Delta-E        Max-DP      RMS-DP      [F,P]     Damp
               ***  Starting incremental Fock matrix formation  ***
  0   -461.0136272202   0.000000000000 0.05514533  0.00115079  0.1999733 0.7000
  1   -461.0979589359  -0.084331715654 0.05092114  0.00102824  0.1170098 0.7000
                               ***Turning on DIIS***
  2   -461.1403404002  -0.042381464322 0.12524340  0.00254029  0.0575634 0.0000
  3   -461.2048028739  -0.064462473664 0.01888642  0.00034154  0.0482675 0.0000
  4   -461.2168090496  -0.012006175672 0.01359137  0.00016801  0.0067786 0.0000
                      *** Initiating the SOSCF procedure ***
                           *** Shutting down DIIS ***
                      *** Re-Reading the Fockian *** 
                      *** Removing any level shift *** 
ITER      Energy       Delta-E        Grad      Rot      Max-DP    RMS-DP
  5   -461.21710046  -0.0002914089  0.000837  0.000837  0.004850  0.000069
               *** Restarting incremental Fock matrix formation ***
  6   -461.21712710  -0.0000266370  0.000427  0.001021  0.003671  0.000046
  7   -461.21713305  -0.0000059520  0.000194  0.000858  0.002908  0.000034
  8   -461.21713420  -0.0000011538  0.000052  0.000131  0.000540  0.000008
                 **** Energy Check signals convergence ****
              ***Rediagonalizing the Fockian in SOSCF/NRSCF***

               *****************************************************
               *                     SUCCESS                       *
               *           SCF CONVERGED AFTER   9 CYCLES          *
               *****************************************************


Setting up the DFT-NL grid :

General Integration Accuracy     IntAcc      ...  4.340
Radial Grid Type                 RadialGrid  ... Gauss-Chebyshev
Angular Grid (max. acc.)         AngularGrid ... Lebedev-110
Angular grid pruning method      GridPruning ... 3 (G Style)
Weight generation scheme         WeightScheme... Becke
Basis function cutoff            BFCut       ...    1.0000e-10
Integration weight cutoff        WCut        ...    1.0000e-14
Grids for H and He will be reduced by one unit

# of grid points (after initial pruning)     ...  13920 (   0.0 sec)
# of grid points (after weights+screening)   ...  13071 (   0.0 sec)
nearest neighbour list constructed           ...    0.0 sec
Grid point re-assignment to atoms done       ...    0.0 sec
Grid point division into batches done        ...    0.0 sec
Reduced shell lists constructed in    0.0 sec

Total number of grid points                  ...    13071
Total number of batches                      ...      212
Average number of points per batch           ...       61
Average number of grid points per atom       ...     1005
Average number of shells per batch           ...    79.40 (67.29%)
Average number of basis functions per batch  ...   212.60 (68.14%)
Average number of large shells per batch     ...    66.50 (83.75%)
Average number of large basis fcns per batch ...   176.30 (82.93%)
Maximum spatial batch extension              ...  10.06, 10.70, 15.34 au
Average spatial batch extension              ...   0.17,  0.19,  0.21 au

Final grid set up in    0.0 sec

-------------------------------------------------------------------------------
                         DFT-NL dispersion correction                          
-------------------------------------------------------------------------------

SC Energy -461.217134360 
NL    Energy 0.165075395 
SC+NL Energy -461.052058964 
NL done in    0.1 sec
-------------------------------------------------------------------------------

----------------
TOTAL SCF ENERGY
----------------

Total Energy       :         -461.05205896 Eh          -12545.86434 eV

Components:
Nuclear Repulsion  :          176.74847102 Eh            4809.57041 eV
Electronic Energy  :         -637.80052998 Eh          -17355.43475 eV
One Electron Energy:         -982.51965717 Eh          -26735.71909 eV
Two Electron Energy:          344.71912719 Eh            9380.28434 eV

Virial components:
Potential Energy   :         -920.89387371 Eh          -25058.79627 eV
Kinetic Energy     :          459.84181475 Eh           12512.93192 eV
Virial Ratio       :            2.00263187


DFT components:
N(Alpha)           :       20.999991488267 electrons
N(Beta)            :       20.999991488267 electrons
N(Total)           :       41.999982976533 electrons
E(X)               :      -29.803346718833 Eh       
E(C)               :       -1.386107716332 Eh       
NL Energy, E(C,NL) :        0.165075395471 Eh       
E(XC)              :      -31.024379039695 Eh       
DFET-embed. en.    :        0.000000000000 Eh       

---------------
SCF CONVERGENCE
---------------

  Last Energy change         ...   -1.5864e-07  Tolerance :   1.0000e-06
  Last MAX-Density change    ...    8.8500e-05  Tolerance :   1.0000e-05
  Last RMS-Density change    ...    1.8111e-06  Tolerance :   1.0000e-06
  Last Orbital Gradient      ...    2.2726e-05  Tolerance :   5.0000e-05
  Last Orbital Rotation      ...    1.6026e-05  Tolerance :   5.0000e-05

             **** THE GBW FILE WAS UPDATED (MOR24_pme3.gbw) ****
             **** DENSITY FILE WAS UPDATED (MOR24_pme3.scfp) ****
             **** ENERGY FILE WAS UPDATED (MOR24_pme3.en.tmp) ****
             **** THE GBW FILE WAS UPDATED (MOR24_pme3.gbw) ****
             **** DENSITY FILE WAS UPDATED (MOR24_pme3.scfp) ****
----------------
ORBITAL ENERGIES
----------------

  NO   OCC          E(Eh)            E(eV) 
   0   2.0000     -77.360530     -2105.0870 
   1   2.0000     -10.337463      -281.2967 
   2   2.0000     -10.337461      -281.2966 
   3   2.0000     -10.337453      -281.2964 
   4   2.0000      -6.707989      -182.5337 
   5   2.0000      -4.820639      -131.1763 
   6   2.0000      -4.820638      -131.1762 
   7   2.0000      -4.816213      -131.0558 
   8   2.0000      -0.881414       -23.9845 
   9   2.0000      -0.806839       -21.9552 
  10   2.0000      -0.806834       -21.9551 
  11   2.0000      -0.640792       -17.4368 
  12   2.0000      -0.544245       -14.8097 
  13   2.0000      -0.529310       -14.4033 
  14   2.0000      -0.529298       -14.4029 
  15   2.0000      -0.499518       -13.5926 
  16   2.0000      -0.499511       -13.5924 
  17   2.0000      -0.485404       -13.2085 
  18   2.0000      -0.418412       -11.3856 
  19   2.0000      -0.418406       -11.3854 
  20   2.0000      -0.316998        -8.6260 
  21   0.0000       0.043047         1.1714 
  22   0.0000       0.056586         1.5398 
  23   0.0000       0.056593         1.5400 
  24   0.0000       0.078106         2.1254 
  25   0.0000       0.107391         2.9223 
  26   0.0000       0.109922         2.9911 
  27   0.0000       0.109927         2.9913 
  28   0.0000       0.124458         3.3867 
  29   0.0000       0.124479         3.3873 
  30   0.0000       0.145417         3.9570 
  31   0.0000       0.145426         3.9572 
  32   0.0000       0.151590         4.1250 
  33   0.0000       0.153743         4.1836 
  34   0.0000       0.179142         4.8747 
  35   0.0000       0.179166         4.8753 
  36   0.0000       0.187999         5.1157 
  37   0.0000       0.188174         5.1205 
  38   0.0000       0.188189         5.1209 
  39   0.0000       0.233858         6.3636 
  40   0.0000       0.233866         6.3638 
  41   0.0000       0.245801         6.6886 
  42   0.0000       0.254682         6.9302 
  43   0.0000       0.254768         6.9326 
  44   0.0000       0.257114         6.9964 
  45   0.0000       0.263500         7.1702 
  46   0.0000       0.282432         7.6854 
  47   0.0000       0.282443         7.6857 
  48   0.0000       0.282769         7.6945 
  49   0.0000       0.300862         8.1869 
  50   0.0000       0.307652         8.3716 
  51   0.0000       0.307698         8.3729 
  52   0.0000       0.317146         8.6300 
  53   0.0000       0.317181         8.6309 
  54   0.0000       0.324037         8.8175 
  55   0.0000       0.324056         8.8180 
  56   0.0000       0.335110         9.1188 
  57   0.0000       0.349496         9.5103 
  58   0.0000       0.349518         9.5109 
  59   0.0000       0.364182         9.9099 
  60   0.0000       0.368002        10.0139 
  61   0.0000       0.384850        10.4723 
  62   0.0000       0.384902        10.4737 
  63   0.0000       0.387341        10.5401 
  64   0.0000       0.389100        10.5880 
  65   0.0000       0.412593        11.2272 
  66   0.0000       0.412625        11.2281 
  67   0.0000       0.424953        11.5636 
  68   0.0000       0.424979        11.5643 
  69   0.0000       0.441539        12.0149 
  70   0.0000       0.442832        12.0501 
  71   0.0000       0.442859        12.0508 
  72   0.0000       0.451404        12.2833 
  73   0.0000       0.451418        12.2837 
  74   0.0000       0.470479        12.8024 
  75   0.0000       0.486833        13.2474 
  76   0.0000       0.486871        13.2484 
  77   0.0000       0.494951        13.4683 
  78   0.0000       0.519351        14.1323 
  79   0.0000       0.521522        14.1913 
  80   0.0000       0.521536        14.1917 
  81   0.0000       0.522945        14.2301 
  82   0.0000       0.544557        14.8181 
  83   0.0000       0.566895        15.4260 
  84   0.0000       0.566915        15.4265 
  85   0.0000       0.583786        15.8856 
  86   0.0000       0.583849        15.8873 
  87   0.0000       0.588298        16.0084 
  88   0.0000       0.598083        16.2747 
  89   0.0000       0.625033        17.0080 
  90   0.0000       0.625118        17.0103 
  91   0.0000       0.637862        17.3571 
  92   0.0000       0.637921        17.3587 
  93   0.0000       0.667617        18.1668 
  94   0.0000       0.724205        19.7066 
  95   0.0000       0.724283        19.7087 
  96   0.0000       0.725256        19.7352 
  97   0.0000       0.725321        19.7370 
  98   0.0000       0.726401        19.7664 
  99   0.0000       0.730297        19.8724 
 100   0.0000       0.743410        20.2292 
 101   0.0000       0.743482        20.2312 
 102   0.0000       0.743739        20.2382 
 103   0.0000       0.778930        21.1958 
 104   0.0000       0.778964        21.1967 
 105   0.0000       0.790062        21.4987 
 106   0.0000       0.800634        21.7864 
 107   0.0000       0.808922        22.0119 
 108   0.0000       0.808944        22.0125 
 109   0.0000       0.864615        23.5274 
 110   0.0000       0.864634        23.5279 
 111   0.0000       0.895584        24.3701 
 112   0.0000       0.895690        24.3730 
 113   0.0000       0.959473        26.1086 
 114   0.0000       0.959482        26.1088 
 115   0.0000       0.973087        26.4791 
 116   0.0000       0.991851        26.9896 
 117   0.0000       1.007435        27.4137 
 118   0.0000       1.007452        27.4142 
 119   0.0000       1.031879        28.0788 
 120   0.0000       1.096998        29.8508 
 121   0.0000       1.125352        30.6224 
 122   0.0000       1.125377        30.6231 
 123   0.0000       1.148560        31.2539 
 124   0.0000       1.178754        32.0755 
 125   0.0000       1.178770        32.0759 
 126   0.0000       1.239906        33.7395 
 127   0.0000       1.252323        34.0774 
 128   0.0000       1.269112        34.5343 
 129   0.0000       1.269177        34.5361 
 130   0.0000       1.286603        35.0103 
 131   0.0000       1.286612        35.0105 
 132   0.0000       1.336324        36.3632 
 133   0.0000       1.342738        36.5378 
 134   0.0000       1.342793        36.5393 
 135   0.0000       1.363064        37.0908 
 136   0.0000       1.363081        37.0913 
 137   0.0000       1.372037        37.3350 
 138   0.0000       1.408259        38.3207 
 139   0.0000       1.443656        39.2839 
 140   0.0000       1.443711        39.2854 
 141   0.0000       1.450650        39.4742 
 142   0.0000       1.455638        39.6099 
 143   0.0000       1.455704        39.6117 
 144   0.0000       1.527922        41.5769 
 145   0.0000       1.527953        41.5777 
 146   0.0000       1.547903        42.1206 
 147   0.0000       1.595781        43.4234 
 148   0.0000       1.606839        43.7243 
 149   0.0000       1.606855        43.7247 
 150   0.0000       1.637879        44.5689 
 151   0.0000       1.647937        44.8427 
 152   0.0000       1.647986        44.8440 
 153   0.0000       1.687135        45.9093 
 154   0.0000       1.689971        45.9864 
 155   0.0000       1.690003        45.9873 
 156   0.0000       1.695019        46.1238 
 157   0.0000       1.715663        46.6856 
 158   0.0000       1.715694        46.6864 
 159   0.0000       1.764180        48.0058 
 160   0.0000       1.764255        48.0078 
 161   0.0000       1.832848        49.8743 
 162   0.0000       1.895373        51.5757 
 163   0.0000       1.898842        51.6701 
 164   0.0000       1.898873        51.6710 
 165   0.0000       1.908741        51.9395 
 166   0.0000       1.928832        52.4862 
 167   0.0000       1.928862        52.4870 
 168   0.0000       1.933148        52.6036 
 169   0.0000       1.991322        54.1866 
 170   0.0000       1.991395        54.1886 
 171   0.0000       2.072240        56.3885 
 172   0.0000       2.121952        57.7413 
 173   0.0000       2.122010        57.7428 
 174   0.0000       2.260324        61.5065 
 175   0.0000       2.260340        61.5070 
 176   0.0000       2.340453        63.6870 
 177   0.0000       2.340485        63.6878 
 178   0.0000       2.354701        64.0747 
 179   0.0000       2.421245        65.8854 
 180   0.0000       2.554835        69.5206 
 181   0.0000       2.586497        70.3822 
 182   0.0000       2.586562        70.3839 
 183   0.0000       2.761778        75.1518 
 184   0.0000       2.790956        75.9458 
 185   0.0000       2.791000        75.9470 
 186   0.0000       2.813988        76.5725 
 187   0.0000       2.871301        78.1321 
 188   0.0000       2.871361        78.1337 
 189   0.0000       2.904319        79.0305 
 190   0.0000       2.932579        79.7995 
 191   0.0000       2.932597        79.8000 
 192   0.0000       2.948470        80.2320 
 193   0.0000       2.977951        81.0342 
 194   0.0000       2.977965        81.0345 
 195   0.0000       2.991122        81.3926 
 196   0.0000       3.021752        82.2260 
 197   0.0000       3.051364        83.0318 
 198   0.0000       3.051397        83.0327 
 199   0.0000       3.063447        83.3606 
 200   0.0000       3.079717        83.8034 
 201   0.0000       3.079752        83.8043 
 202   0.0000       3.113198        84.7144 
 203   0.0000       3.113215        84.7149 
 204   0.0000       3.172211        86.3202 
 205   0.0000       3.200816        87.0986 
 206   0.0000       3.200832        87.0991 
 207   0.0000       3.226923        87.8090 
 208   0.0000       3.268600        88.9431 
 209   0.0000       3.268658        88.9447 
 210   0.0000       3.272813        89.0578 
 211   0.0000       3.293989        89.6340 
 212   0.0000       3.302919        89.8770 
 213   0.0000       3.302957        89.8780 
 214   0.0000       3.395917        92.4076 
 215   0.0000       3.396010        92.4101 
 216   0.0000       3.428766        93.3015 
 217   0.0000       3.456270        94.0499 
 218   0.0000       3.505627        95.3930 
 219   0.0000       3.535661        96.2102 
 220   0.0000       3.535689        96.2110 
 221   0.0000       3.578679        97.3808 
 222   0.0000       3.578698        97.3813 
 223   0.0000       3.598340        97.9158 
 224   0.0000       3.598394        97.9173 
 225   0.0000       3.621675        98.5508 
 226   0.0000       3.621685        98.5510 
 227   0.0000       3.624588        98.6301 
 228   0.0000       3.638434        99.0068 
 229   0.0000       3.666711        99.7763 
 230   0.0000       3.666756        99.7775 
 231   0.0000       3.723831       101.3306 
 232   0.0000       3.723862       101.3314 
 233   0.0000       3.778331       102.8136 
 234   0.0000       3.780216       102.8649 
 235   0.0000       3.810421       103.6868 
 236   0.0000       3.810445       103.6875 
 237   0.0000       3.918307       106.6226 
 238   0.0000       3.918349       106.6237 
 239   0.0000       3.935556       107.0919 
 240   0.0000       3.990375       108.5836 
 241   0.0000       3.990435       108.5853 
 242   0.0000       4.052996       110.2876 
 243   0.0000       4.053001       110.2878 
 244   0.0000       4.096384       111.4683 
 245   0.0000       4.098209       111.5179 
 246   0.0000       4.148677       112.8912 
 247   0.0000       4.148711       112.8922 
 248   0.0000       4.203543       114.3842 
 249   0.0000       4.203553       114.3845 
 250   0.0000       4.204616       114.4134 
 251   0.0000       4.224830       114.9635 
 252   0.0000       4.276392       116.3665 
 253   0.0000       4.276427       116.3675 
 254   0.0000       4.282548       116.5340 
 255   0.0000       4.355693       118.5244 
 256   0.0000       4.355721       118.5252 
 257   0.0000       4.363697       118.7422 
 258   0.0000       4.370308       118.9221 
 259   0.0000       4.421395       120.3123 
 260   0.0000       4.421453       120.3138 
 261   0.0000       4.450567       121.1061 
 262   0.0000       4.450629       121.1078 
 263   0.0000       4.518747       122.9614 
 264   0.0000       4.628104       125.9371 
 265   0.0000       4.659087       126.7802 
 266   0.0000       4.659119       126.7811 
 267   0.0000       4.690626       127.6384 
 268   0.0000       4.695162       127.7619 
 269   0.0000       4.695183       127.7624 
 270   0.0000       4.712504       128.2337 
 271   0.0000       4.765583       129.6781 
 272   0.0000       4.765596       129.6785 
 273   0.0000       5.098049       138.7250 
 274   0.0000       5.098097       138.7263 
 275   0.0000       5.133584       139.6919 
 276   0.0000       5.141409       139.9049 
 277   0.0000       5.164623       140.5365 
 278   0.0000       5.164645       140.5371 
 279   0.0000       5.181594       140.9984 
 280   0.0000       5.181628       140.9993 
 281   0.0000       5.192023       141.2821 
 282   0.0000       5.228788       142.2826 
 283   0.0000       5.245692       142.7425 
 284   0.0000       5.245723       142.7434 
 285   0.0000       5.247731       142.7980 
 286   0.0000       5.317221       144.6889 
 287   0.0000       5.317228       144.6891 
 288   0.0000       5.359739       145.8459 
 289   0.0000       5.367037       146.0445 
 290   0.0000       5.367055       146.0450 
 291   0.0000       5.503224       149.7503 
 292   0.0000       5.503266       149.7515 
 293   0.0000       5.540228       150.7573 
 294   0.0000       5.642666       153.5447 
 295   0.0000       5.649670       153.7353 
 296   0.0000       5.689207       154.8112 
 297   0.0000       5.689239       154.8121 
 298   0.0000       5.740267       156.2006 
 299   0.0000       5.740304       156.2016 
 300   0.0000       6.066192       165.0695 
 301   0.0000       6.066222       165.0703 
 302   0.0000       6.083186       165.5319 
 303   0.0000       6.488465       176.5601 
 304   0.0000       6.488534       176.5620 
 305   0.0000       7.892034       214.7532 
 306   0.0000       8.043302       218.8694 
 307   0.0000       8.043323       218.8699 
 308   0.0000      15.503820       421.8804 
 309   0.0000      23.893914       650.1864 
 310   0.0000      23.894012       650.1891 
 311   0.0000      23.996040       652.9654 

                    ********************************
                    * MULLIKEN POPULATION ANALYSIS *
                    ********************************

-----------------------
MULLIKEN ATOMIC CHARGES
-----------------------
   0 P :    0.077584
   1 C :   -0.869797
   2 H :    0.282871
   3 H :    0.280307
   4 H :    0.280472
   5 C :   -0.867844
   6 H :    0.281802
   7 H :    0.280112
   8 H :    0.280475
   9 C :   -0.869174
  10 H :    0.282385
  11 H :    0.280565
  12 H :    0.280243
Sum of atomic charges:    0.0000000

--------------------------------
MULLIKEN REDUCED ORBITAL CHARGES
--------------------------------
  0 P s       :     5.880104  s :     5.880104
      pz      :     3.259749  p :     8.783700
      px      :     2.762157
      py      :     2.761794
      dz2     :     0.014837  d :     0.229999
      dxz     :     0.061847
      dyz     :     0.061806
      dx2y2   :     0.045756
      dxy     :     0.045753
      f0      :     0.002869  f :     0.028613
      f+1     :     0.003273
      f-1     :     0.003273
      f+2     :     0.005816
      f-2     :     0.005816
      f+3     :     0.004595
      f-3     :     0.002973
  1 C s       :     3.255353  s :     3.255353
      pz      :     1.180364  p :     3.510416
      px      :     1.086571
      py      :     1.243482
      dz2     :     0.059820  d :     0.102715
      dxz     :    -0.002264
      dyz     :     0.014040
      dx2y2   :     0.015899
      dxy     :     0.015220
      f0      :     0.000346  f :     0.001312
      f+1     :     0.000290
      f-1     :     0.000030
      f+2     :     0.000049
      f-2     :     0.000061
      f+3     :     0.000229
      f-3     :     0.000307
  2 H s       :     0.666604  s :     0.666604
      pz      :     0.030545  p :     0.048163
      px      :     0.008152
      py      :     0.009467
      dz2     :     0.000596  d :     0.002362
      dxz     :     0.000955
      dyz     :     0.000767
      dx2y2   :     0.000023
      dxy     :     0.000021
  3 H s       :     0.652105  s :     0.652105
      pz      :     0.018850  p :     0.065245
      px      :     0.026338
      py      :     0.020057
      dz2     :     0.000290  d :     0.002342
      dxz     :     0.000519
      dyz     :     0.000247
      dx2y2   :     0.000813
      dxy     :     0.000473
  4 H s       :     0.652010  s :     0.652010
      pz      :     0.018831  p :     0.065176
      px      :     0.014738
      py      :     0.031608
      dz2     :     0.000290  d :     0.002342
      dxz     :     0.000058
      dyz     :     0.000707
      dx2y2   :     0.000456
      dxy     :     0.000830
  5 C s       :     3.254929  s :     3.254929
      pz      :     1.179777  p :     3.509127
      px      :     1.275844
      py      :     1.053505
      dz2     :     0.059854  d :     0.102477
      dxz     :     0.017438
      dyz     :    -0.005842
      dx2y2   :     0.010433
      dxy     :     0.020595
      f0      :     0.000346  f :     0.001311
      f+1     :    -0.000024
      f-1     :     0.000344
      f+2     :     0.000147
      f-2     :    -0.000036
      f+3     :     0.000229
      f-3     :     0.000307
  6 H s       :     0.667507  s :     0.667507
      pz      :     0.030573  p :     0.048329
      px      :     0.009722
      py      :     0.008034
      dz2     :     0.000596  d :     0.002362
      dxz     :     0.000728
      dyz     :     0.000993
      dx2y2   :     0.000007
      dxy     :     0.000038
  7 H s       :     0.652454  s :     0.652454
      pz      :     0.018817  p :     0.065094
      px      :     0.028735
      py      :     0.017542
      dz2     :     0.000290  d :     0.002341
      dxz     :     0.000589
      dyz     :     0.000176
      dx2y2   :     0.000705
      dxy     :     0.000581
  8 H s       :     0.652120  s :     0.652120
      pz      :     0.018771  p :     0.065063
      px      :     0.025064
      py      :     0.021229
      dz2     :     0.000290  d :     0.002342
      dxz     :     0.000443
      dyz     :     0.000323
      dx2y2   :     0.000865
      dxy     :     0.000421
  9 C s       :     3.255290  s :     3.255290
      pz      :     1.180036  p :     3.509866
      px      :     1.132131
      py      :     1.197700
      dz2     :     0.059873  d :     0.102706
      dxz     :     0.002458
      dyz     :     0.009265
      dx2y2   :     0.020280
      dxy     :     0.010831
      f0      :     0.000346  f :     0.001312
      f+1     :     0.000214
      f-1     :     0.000105
      f+2     :    -0.000031
      f-2     :     0.000141
      f+3     :     0.000229
      f-3     :     0.000307
 10 H s       :     0.667010  s :     0.667010
      pz      :     0.030540  p :     0.048243
      px      :     0.008602
      py      :     0.009102
      dz2     :     0.000595  d :     0.002361
      dxz     :     0.000900
      dyz     :     0.000821
      dx2y2   :     0.000037
      dxy     :     0.000008
 11 H s       :     0.651915  s :     0.651915
      pz      :     0.018864  p :     0.065178
      px      :     0.014430
      py      :     0.031884
      dz2     :     0.000290  d :     0.002342
      dxz     :     0.000040
      dyz     :     0.000726
      dx2y2   :     0.000412
      dxy     :     0.000873
 12 H s       :     0.652342  s :     0.652342
      pz      :     0.018772  p :     0.065073
      px      :     0.029642
      py      :     0.016659
      dz2     :     0.000290  d :     0.002342
      dxz     :     0.000646
      dyz     :     0.000119
      dx2y2   :     0.000608
      dxy     :     0.000678


                     *******************************
                     * LOEWDIN POPULATION ANALYSIS *
                     *******************************

----------------------
LOEWDIN ATOMIC CHARGES
----------------------
   0 P :    0.865624
   1 C :   -0.098051
   2 H :   -0.058601
   3 H :   -0.065942
   4 H :   -0.065945
   5 C :   -0.098052
   6 H :   -0.058589
   7 H :   -0.065945
   8 H :   -0.065954
   9 C :   -0.098041
  10 H :   -0.058603
  11 H :   -0.065953
  12 H :   -0.065949

-------------------------------
LOEWDIN REDUCED ORBITAL CHARGES
-------------------------------
  0 P s       :     4.815324  s :     4.815324
      pz      :     3.099092  p :     8.409820
      px      :     2.655363
      py      :     2.655365
      dz2     :     0.152140  d :     0.810846
      dxz     :     0.136670
      dyz     :     0.136662
      dx2y2   :     0.192684
      dxy     :     0.192690
      f0      :     0.007872  f :     0.098386
      f+1     :     0.011398
      f-1     :     0.011397
      f+2     :     0.019194
      f-2     :     0.019194
      f+3     :     0.015773
      f-3     :     0.013558
  1 C s       :     2.715932  s :     2.715932
      pz      :     0.961179  p :     2.862026
      px      :     0.951212
      py      :     0.949635
      dz2     :     0.143778  d :     0.499620
      dxz     :     0.110239
      dyz     :     0.044884
      dx2y2   :     0.101998
      dxy     :     0.098721
      f0      :     0.004790  f :     0.020473
      f+1     :     0.002371
      f-1     :     0.001573
      f+2     :     0.002947
      f-2     :     0.003025
      f+3     :     0.001746
      f-3     :     0.004023
  2 H s       :     0.711558  s :     0.711558
      pz      :     0.142211  p :     0.316294
      px      :     0.089731
      py      :     0.084351
      dz2     :     0.011034  d :     0.030749
      dxz     :     0.009875
      dyz     :     0.009500
      dx2y2   :     0.000175
      dxy     :     0.000165
  3 H s       :     0.719460  s :     0.719460
      pz      :     0.089112  p :     0.315705
      px      :     0.125855
      py      :     0.100739
      dz2     :     0.003995  d :     0.030776
      dxz     :     0.006447
      dyz     :     0.003032
      dx2y2   :     0.009746
      dxy     :     0.007557
  4 H s       :     0.719468  s :     0.719468
      pz      :     0.089117  p :     0.315700
      px      :     0.089933
      py      :     0.136650
      dz2     :     0.003996  d :     0.030777
      dxz     :     0.000814
      dyz     :     0.008665
      dx2y2   :     0.007514
      dxy     :     0.009787
  5 C s       :     2.715934  s :     2.715934
      pz      :     0.961169  p :     2.862005
      px      :     0.949297
      py      :     0.951539
      dz2     :     0.143789  d :     0.499639
      dxz     :     0.031257
      dyz     :     0.123866
      dx2y2   :     0.074476
      dxy     :     0.126250
      f0      :     0.004790  f :     0.020474
      f+1     :     0.001406
      f-1     :     0.002537
      f+2     :     0.003604
      f-2     :     0.002368
      f+3     :     0.001745
      f-3     :     0.004024
  6 H s       :     0.711563  s :     0.711563
      pz      :     0.142207  p :     0.316279
      px      :     0.083228
      py      :     0.090844
      dz2     :     0.011034  d :     0.030748
      dxz     :     0.009422
      dyz     :     0.009952
      dx2y2   :     0.000091
      dxy     :     0.000249
  7 H s       :     0.719466  s :     0.719466
      pz      :     0.089113  p :     0.315702
      px      :     0.126658
      py      :     0.099931
      dz2     :     0.003995  d :     0.030777
      dxz     :     0.007207
      dyz     :     0.002272
      dx2y2   :     0.008481
      dxy     :     0.008822
  8 H s       :     0.719464  s :     0.719464
      pz      :     0.089121  p :     0.315713
      px      :     0.115231
      py      :     0.111361
      dz2     :     0.003997  d :     0.030777
      dxz     :     0.005414
      dyz     :     0.004065
      dx2y2   :     0.009485
      dxy     :     0.007816
  9 C s       :     2.715934  s :     2.715934
      pz      :     0.961170  p :     2.862019
      px      :     0.950748
      py      :     0.950101
      dz2     :     0.143777  d :     0.499614
      dxz     :     0.091174
      dyz     :     0.063938
      dx2y2   :     0.124586
      dxy     :     0.076140
      f0      :     0.004789  f :     0.020473
      f+1     :     0.002139
      f-1     :     0.001805
      f+2     :     0.002407
      f-2     :     0.003564
      f+3     :     0.001744
      f-3     :     0.004025
 10 H s       :     0.711558  s :     0.711558
      pz      :     0.142212  p :     0.316296
      px      :     0.088168
      py      :     0.085916
      dz2     :     0.011034  d :     0.030749
      dxz     :     0.009765
      dyz     :     0.009609
      dx2y2   :     0.000244
      dxy     :     0.000096
 11 H s       :     0.719476  s :     0.719476
      pz      :     0.089119  p :     0.315700
      px      :     0.087366
      py      :     0.139216
      dz2     :     0.003997  d :     0.030777
      dxz     :     0.000564
      dyz     :     0.008915
      dx2y2   :     0.007726
      dxy     :     0.009575
 12 H s       :     0.719462  s :     0.719462
      pz      :     0.089110  p :     0.315710
      px      :     0.134716
      py      :     0.091884
      dz2     :     0.003995  d :     0.030777
      dxz     :     0.007990
      dyz     :     0.001489
      dx2y2   :     0.008955
      dxy     :     0.008349


                      *****************************
                      * MAYER POPULATION ANALYSIS *
                      *****************************

  NA   - Mulliken gross atomic population
  ZA   - Total nuclear charge
  QA   - Mulliken gross atomic charge
  VA   - Mayer's total valence
  BVA  - Mayer's bonded valence
  FA   - Mayer's free valence

  ATOM       NA         ZA         QA         VA         BVA        FA
  0 P     14.9224    15.0000     0.0776     2.6117     2.6117     0.0000
  1 C      6.8698     6.0000    -0.8698     3.6964     3.6964    -0.0000
  2 H      0.7171     1.0000     0.2829     1.0410     1.0410    -0.0000
  3 H      0.7197     1.0000     0.2803     1.0323     1.0323    -0.0000
  4 H      0.7195     1.0000     0.2805     1.0320     1.0320    -0.0000
  5 C      6.8678     6.0000    -0.8678     3.6958     3.6958     0.0000
  6 H      0.7182     1.0000     0.2818     1.0420     1.0420     0.0000
  7 H      0.7199     1.0000     0.2801     1.0319     1.0319     0.0000
  8 H      0.7195     1.0000     0.2805     1.0316     1.0316     0.0000
  9 C      6.8692     6.0000    -0.8692     3.6969     3.6969     0.0000
 10 H      0.7176     1.0000     0.2824     1.0413     1.0413     0.0000
 11 H      0.7194     1.0000     0.2806     1.0317     1.0317     0.0000
 12 H      0.7198     1.0000     0.2802     1.0320     1.0320    -0.0000

  Mayer bond orders larger than 0.100000
B(  0-P ,  1-C ) :   0.8464 B(  0-P ,  5-C ) :   0.8452 B(  0-P ,  9-C ) :   0.8464 
B(  1-C ,  2-H ) :   0.8952 B(  1-C ,  3-H ) :   0.9556 B(  1-C ,  4-H ) :   0.9554 
B(  5-C ,  6-H ) :   0.8962 B(  5-C ,  7-H ) :   0.9554 B(  5-C ,  8-H ) :   0.9552 
B(  9-C , 10-H ) :   0.8957 B(  9-C , 11-H ) :   0.9554 B(  9-C , 12-H ) :   0.9554 


-------
TIMINGS
-------

Total SCF time: 0 days 0 hours 0 min 19 sec 

Total time                  ....      19.905 sec
Sum of individual times     ....      19.555 sec  ( 98.2%)

Fock matrix formation       ....      18.842 sec  ( 94.7%)
  XC integration            ....       1.298 sec  (  6.9% of F)
    Basis function eval.    ....       0.131 sec  ( 10.1% of XC)
    Density eval.           ....       0.286 sec  ( 22.1% of XC)
    XC-Functional eval.     ....       0.038 sec  (  2.9% of XC)
    XC-Potential eval.      ....       0.588 sec  ( 45.3% of XC)
Diagonalization             ....       0.091 sec  (  0.5%)
Density matrix formation    ....       0.014 sec  (  0.1%)
Population analysis         ....       0.015 sec  (  0.1%)
Initial guess               ....       0.173 sec  (  0.9%)
Orbital Transformation      ....       0.000 sec  (  0.0%)
Orbital Orthonormalization  ....       0.000 sec  (  0.0%)
DIIS solution               ....       0.036 sec  (  0.2%)
SOSCF solution              ....       0.043 sec  (  0.2%)
Grid generation             ....       0.342 sec  (  1.7%)

-------------------------   --------------------
FINAL SINGLE POINT ENERGY      -461.052058964421
-------------------------   --------------------


                            ***************************************
                            *     ORCA property calculations      *
                            ***************************************

                                    ---------------------
                                    Active property flags
                                    ---------------------
   (+) Dipole Moment


------------------------------------------------------------------------------
                       ORCA ELECTRIC PROPERTIES CALCULATION
------------------------------------------------------------------------------

Dipole Moment Calculation                       ... on
Quadrupole Moment Calculation                   ... off
Polarizability Calculation                      ... off
GBWName                                         ... MOR24_pme3.gbw
Electron density file                           ... MOR24_pme3.scfp
The origin for moment calculation is the CENTER OF MASS  = ( 0.000001, -0.000010 -0.114362)

-------------
DIPOLE MOMENT
-------------
                                X             Y             Z
Electronic contribution:      0.00013      -0.00039      -4.33600
Nuclear contribution   :     -0.00004       0.00039       4.80319
                        -----------------------------------------
Total Dipole Moment    :      0.00009       0.00000       0.46719
                        -----------------------------------------
Magnitude (a.u.)       :      0.46719
Magnitude (Debye)      :      1.18751



--------------------
Rotational spectrum 
--------------------
 
Rotational constants in cm-1:     0.191522     0.191510     0.123399 
Rotational constants in MHz :  5741.693239  5741.320508  3699.411170 

 Dipole components along the rotational axes: 
x,y,z [a.u.] :     0.000087    -0.000000     0.467192 
x,y,z [Debye]:     0.000222    -0.000001     1.187507 

 

Timings for individual modules:

Sum of individual times         ...       21.207 sec (=   0.353 min)
GTO integral calculation        ...        0.869 sec (=   0.014 min)   4.1 %
SCF iterations                  ...       20.337 sec (=   0.339 min)  95.9 %
                             ****ORCA TERMINATED NORMALLY****
TOTAL RUN TIME: 0 days 0 hours 0 minutes 21 seconds 752 msec
