
                                 *****************
                                 * O   R   C   A *
                                 *****************

           --- An Ab Initio, DFT and Semiempirical electronic structure package ---

                  #######################################################
                  #                        -***-                        #
                  #          Department of theory and spectroscopy      #
                  #               Directorship: Frank Neese             #
                  #        Max Planck Institute fuer Kohlenforschung    #
                  #                Kaiser Wilhelm Platz 1               #
                  #                 D-45470 Muelheim/Ruhr               #
                  #                      Germany                        #
                  #                                                     #
                  #                  All rights reserved                #
                  #                        -***-                        #
                  #######################################################


                         Program Version 4.2.0 -  RELEASE  -


 With contributions from (in alphabetic order):
   Daniel Aravena         : Magnetic Suceptibility
   Michael Atanasov       : Ab Initio Ligand Field Theory (pilot matlab implementation)
   Alexander A. Auer      : GIAO ZORA, VPT2
   Ute Becker             : Parallelization
   Giovanni Bistoni       : ED, misc. LED, open-shell LED, HFLED
   Martin Brehm           : Molecular dynamics
   Dmytro Bykov           : SCF Hessian
   Vijay G. Chilkuri      : MRCI spin determinant printing, contributions to CSF-ICE
   Dipayan Datta          : RHF DLPNO-CCSD density
   Achintya Kumar Dutta   : EOM-CC, STEOM-CC
   Dmitry Ganyushin       : Spin-Orbit,Spin-Spin,Magnetic field MRCI
   Miquel Garcia          : C-PCM Hessian, Gaussian charge scheme
   Yang Guo               : DLPNO-NEVPT2, CIM, IAO-localization
   Andreas Hansen         : Spin unrestricted coupled pair/coupled cluster methods
   Benjamin Helmich-Paris : CASSCF linear response (MC-RPA)
   Lee Huntington         : MR-EOM, pCC
   Robert Izsak           : Overlap fitted RIJCOSX, COSX-SCS-MP3, EOM
   Christian Kollmar      : KDIIS, OOCD, Brueckner-CCSD(T), CCSD density
   Simone Kossmann        : Meta GGA functionals, TD-DFT gradient, OOMP2, MP2 Hessian
   Martin Krupicka        : AUTO-CI
   Lucas Lang             : DCDCAS
   Dagmar Lenk            : GEPOL surface, SMD
   Dimitrios Liakos       : Extrapolation schemes; Compound Job, initial MDCI parallelization
   Dimitrios Manganas     : Further ROCIS development; embedding schemes
   Dimitrios Pantazis     : SARC Basis sets
   Taras Petrenko         : DFT Hessian,TD-DFT gradient, ASA, ECA, R-Raman, ABS, FL, XAS/XES, NRVS
   Peter Pinski           : DLPNO-MP2, DLPNO-MP2 Gradient
   Christoph Reimann      : Effective Core Potentials
   Marius Retegan         : Local ZFS, SOC
   Christoph Riplinger    : Optimizer, TS searches, QM/MM, DLPNO-CCSD(T), (RO)-DLPNO pert. Triples
   Tobias Risthaus        : Range-separated hybrids, TD-DFT gradient, RPA, STAB
   Michael Roemelt        : Original ROCIS implementation
   Masaaki Saitow         : Open-shell DLPNO-CCSD energy and density
   Barbara Sandhoefer     : DKH picture change effects
   Avijit Sen             : IP-ROCIS
   Kantharuban Sivalingam : CASSCF convergence, NEVPT2, FIC-MRCI
   Bernardo de Souza      : ESD, SOC TD-DFT
   Georgi Stoychev        : AutoAux, RI-MP2 NMR
   Willem Van den Heuvel  : Paramagnetic NMR
   Boris Wezisla          : Elementary symmetry handling
   Frank Wennmohs         : Technical directorship


 We gratefully acknowledge several colleagues who have allowed us to
 interface, adapt or use parts of their codes:
   Stefan Grimme, W. Hujo, H. Kruse,             : VdW corrections, initial TS optimization,
                  C. Bannwarth                     DFT functionals, gCP, sTDA/sTD-DF
   Ed Valeev, F. Pavosevic, A. Kumar             : LibInt (2-el integral package), F12 methods
   Garnet Chan, S. Sharma, J. Yang, R. Olivares  : DMRG
   Ulf Ekstrom                                   : XCFun DFT Library
   Mihaly Kallay                                 : mrcc  (arbitrary order and MRCC methods)
   Andreas Klamt, Michael Diedenhofen            : otool_cosmo (COSMO solvation model)
   Jiri Pittner, Ondrej Demel                    : Mk-CCSD
   Frank Weinhold                                : gennbo (NPA and NBO analysis)
   Christopher J. Cramer and Donald G. Truhlar   : smd solvation model
   Lars Goerigk                                  : TD-DFT with DH, B97 family of functionals
   V. Asgeirsson, H. Jonsson                     : NEB implementation
   FAccTs GmbH                                   : IRC, NEB, NEB-TS, Multilevel, MM, QM/MM, CI optimization
   S Lehtola, MJT Oliveira, MAL Marques          : LibXC Library


 Your calculation uses the libint2 library for the computation of 2-el integrals
 For citations please refer to: http://libint.valeyev.net

 Your ORCA version has been built with support for libXC version: 4.2.3
 For citations please refer to: https://tddft.org/programs/libxc/

 This ORCA versions uses:
   CBLAS   interface :  Fast vector & matrix operations
   LAPACKE interface :  Fast linear algebra routines
   SCALAPACK package :  Parallel linear algebra routines


Your calculation utilizes the DFT-NL dispersion correction.
Cite in your paper:
Vydrov, O. A.; Van Voorhis, T. J. Chem. Phys. 2010, 133, 244103
Hujo, W.; Grimme, S. J. Chem. Theory Comput. 2011, 7, 3866 
   

----- Orbital basis set information -----
Your calculation utilizes the basis: def2-TZVPPD
   F. Weigend and R. Ahlrichs, Phys. Chem. Chem. Phys. 7, 3297 (2005).
   D. Rappoport and F. Furche, J. Chem. Phys. 133 134105 (2010).

----- AuxJK basis set information -----
Your calculation utilizes the auxiliary basis: def2/JK
   H-Ba, Hf-Rn: F. Weigend, J. Comput. Chem. 29, 167 (2008).

================================================================================
                                        WARNINGS
                       Please study these warnings very carefully!
================================================================================


INFO   : the flag for use of LIBINT has been found!

================================================================================
                                       INPUT FILE
================================================================================
NAME = MOR23_phseh.in
|  1> #
|  2> # MOR23_phseh wB97M-V/Def2-TZVPPD
|  3> #
|  4> ! wb97m-v def2-tzvppd def2/jk grid4 nofinalgrid
|  5> 
|  6> *xyz 0 1
|  7> C        0.099641    0.015172    0.000002 
|  8> C        0.811159    1.219454    0.000004 
|  9> C        2.205438    1.200000    0.000001 
| 10> C        2.898295   -0.010923    0.000001 
| 11> C        2.184022   -1.209573    0.000001 
| 12> C        0.790170   -1.202154    0.000003 
| 13> Se      -1.821201   -0.043502   -0.000002 
| 14> H       -1.984560    1.419830   -0.000002 
| 15> H        0.283594    2.168662    0.000009 
| 16> H        2.749671    2.140448   -0.000003 
| 17> H        3.983980   -0.020380    0.000003 
| 18> H        2.711288   -2.159513   -0.000002 
| 19> H        0.244496   -2.141840    0.000007 
| 20> *
| 21> 
| 22> %maxcore 5000
| 23> 
| 24> %pal
| 25> nprocs = 24
| 26> end
| 27> 
| 28> 
| 29>                          ****END OF INPUT****
================================================================================

                       ****************************
                       * Single Point Calculation *
                       ****************************

---------------------------------
CARTESIAN COORDINATES (ANGSTROEM)
---------------------------------
  C      0.099641    0.015172    0.000002
  C      0.811159    1.219454    0.000004
  C      2.205438    1.200000    0.000001
  C      2.898295   -0.010923    0.000001
  C      2.184022   -1.209573    0.000001
  C      0.790170   -1.202154    0.000003
  Se    -1.821201   -0.043502   -0.000002
  H     -1.984560    1.419830   -0.000002
  H      0.283594    2.168662    0.000009
  H      2.749671    2.140448   -0.000003
  H      3.983980   -0.020380    0.000003
  H      2.711288   -2.159513   -0.000002
  H      0.244496   -2.141840    0.000007

----------------------------
CARTESIAN COORDINATES (A.U.)
----------------------------
  NO LB      ZA    FRAG     MASS         X           Y           Z
   0 C     6.0000    0    12.011    0.188294    0.028671    0.000004
   1 C     6.0000    0    12.011    1.532868    2.304434    0.000008
   2 C     6.0000    0    12.011    4.167674    2.267671    0.000002
   3 C     6.0000    0    12.011    5.476984   -0.020641    0.000002
   4 C     6.0000    0    12.011    4.127203   -2.285762    0.000002
   5 C     6.0000    0    12.011    1.493205   -2.271742    0.000006
   6 Se   34.0000    0    78.960   -3.441571   -0.082207   -0.000004
   7 H     1.0000    0     1.008   -3.750275    2.683090   -0.000004
   8 H     1.0000    0     1.008    0.535915    4.098177    0.000017
   9 H     1.0000    0     1.008    5.196125    4.044861   -0.000006
  10 H     1.0000    0     1.008    7.528631   -0.038513    0.000006
  11 H     1.0000    0     1.008    5.123592   -4.080888   -0.000004
  12 H     1.0000    0     1.008    0.462030   -4.047491    0.000013

--------------------------------
INTERNAL COORDINATES (ANGSTROEM)
--------------------------------
 C      0   0   0     0.000000000000     0.00000000     0.00000000
 C      1   0   0     1.398768386779     0.00000000     0.00000000
 C      2   1   0     1.394414711614   119.77620744     0.00000000
 C      3   2   1     1.395129146129   120.57638934     0.00000000
 C      4   3   2     1.395330692355   119.43236668     0.00000000
 C      5   4   3     1.393871744268   120.48566165     0.00000000
 Se     1   2   3     1.921737918462   122.32519984   180.00027818
 H      7   1   2     1.472422054000    94.62022631     0.00000000
 H      2   1   3     1.085965310917   120.35932807   180.00006886
 H      3   2   1     1.086568911302   119.25839146   179.99966238
 H      4   3   2     1.085726187433   120.27607831   180.00026539
 H      5   4   3     1.086460049134   120.17682735   179.99981699
 H      6   5   4     1.086632363262   119.83869653   180.00024439

---------------------------
INTERNAL COORDINATES (A.U.)
---------------------------
 C      0   0   0     0.000000000000     0.00000000     0.00000000
 C      1   0   0     2.643289175799     0.00000000     0.00000000
 C      2   1   0     2.635061922062   119.77620744     0.00000000
 C      3   2   1     2.636412007635   120.57638934     0.00000000
 C      4   3   2     2.636792874806   119.43236668     0.00000000
 C      5   4   3     2.634035862478   120.48566165     0.00000000
 Se     1   2   3     3.631558367066   122.32519984   180.00027818
 H      7   1   2     2.782474435605    94.62022631     0.00000000
 H      2   1   3     2.052177028571   120.35932807   180.00006886
 H      3   2   1     2.053317667995   119.25839146   179.99966238
 H      4   3   2     2.051725150675   120.27607831   180.00026539
 H      5   4   3     2.053111948311   120.17682735   179.99981699
 H      6   5   4     2.053437574821   119.83869653   180.00024439

---------------------
BASIS SET INFORMATION
---------------------
There are 3 groups of distinct atoms

 Group   1 Type C   : 12s6p3d1f contracted to 6s3p3d1f pattern {621111/411/111/1}
 Group   2 Type Se  : 18s14p9d1f contracted to 7s6p5d1f pattern {8421111/641111/51111/1}
 Group   3 Type H   : 5s3p1d contracted to 3s3p1d pattern {311/111/1}

Atom   0C    basis set group =>   1
Atom   1C    basis set group =>   1
Atom   2C    basis set group =>   1
Atom   3C    basis set group =>   1
Atom   4C    basis set group =>   1
Atom   5C    basis set group =>   1
Atom   6Se   basis set group =>   2
Atom   7H    basis set group =>   3
Atom   8H    basis set group =>   3
Atom   9H    basis set group =>   3
Atom  10H    basis set group =>   3
Atom  11H    basis set group =>   3
Atom  12H    basis set group =>   3
----------------------------------
AUXILIARY/JK BASIS SET INFORMATION
----------------------------------
There are 3 groups of distinct atoms

 Group   1 Type C   : 14s10p6d2f1g contracted to 10s8p5d1f1g pattern {5111111111/31111111/21111/2/1}
 Group   2 Type Se  : 20s14p13d10f7g3h contracted to 17s13p12d9f6g3h pattern {41111111111111111/2111111111111/211111111111/211111111/211111/111}
 Group   3 Type H   : 4s2p2d contracted to 2s2p2d pattern {31/11/11}

Atom   0C    basis set group =>   1
Atom   1C    basis set group =>   1
Atom   2C    basis set group =>   1
Atom   3C    basis set group =>   1
Atom   4C    basis set group =>   1
Atom   5C    basis set group =>   1
Atom   6Se   basis set group =>   2
Atom   7H    basis set group =>   3
Atom   8H    basis set group =>   3
Atom   9H    basis set group =>   3
Atom  10H    basis set group =>   3
Atom  11H    basis set group =>   3
Atom  12H    basis set group =>   3


           ************************************************************
           *        Program running with 24 parallel MPI-processes    *
           *              working on a common directory               *
           ************************************************************
------------------------------------------------------------------------------
                           ORCA GTO INTEGRAL CALCULATION
------------------------------------------------------------------------------

                         BASIS SET STATISTICS AND STARTUP INFO

 # of primitive gaussian shells          ...  228
 # of primitive gaussian functions       ...  538
 # of contracted shells                  ...  139
 # of contracted basis functions         ...  381
 Highest angular momentum                ...    3
 Maximum contraction depth               ...    8
 Integral package used                   ... LIBINT
 Integral threshhold            Thresh   ...  1.000e-10
 Primitive cut-off              TCut     ...  1.000e-11


------------------------------ INTEGRAL EVALUATION ----------------------------


 * One electron integrals 
 Pre-screening matrix                    ... done
 Shell pair data                         ... done (   0.003 sec)



           ************************************************************
           *        Program running with 24 parallel MPI-processes    *
           *              working on a common directory               *
           ************************************************************
-------------------------------------------------------------------------------
                                 ORCA SCF
-------------------------------------------------------------------------------

------------
SCF SETTINGS
------------
Hamiltonian:
 Density Functional     Method          .... DFT(GTOs)
 Exchange Functional    Exchange        .... WB97M-V
 Correlation Functional Correlation     .... WB97M-V
 Gradients option       PostSCFGGA      .... off
 Hybrid DFT is turned on
   Fraction HF Exchange ScalHFX         ....  0.150000
   Scaling of DF-GGA-X  ScalDFX         ....  0.000000
   Scaling of DF-GGA-C  ScalDFC         ....  1.000000
   Scaling of DF-LDA-C  ScalLDAC        ....  1.000000
   Perturbative correction              ....  0.000000
   Density functional embedding theory  .... OFF
 Long-range corrected/Screened/Range-Separated Hybrid DFT is turned on
   Amount of maximum screened exact exchange              ....  0.850000
   Range separation parameter mu (erf(mu*r12)/r12)        ....  0.300000
   NL short-range parameter             ....  6.000000
   NL long-range parameter              ....  0.010000


General Settings:
 Integral files         IntName         .... MOR23_phseh
 Hartree-Fock type      HFTyp           .... RHF
 Total Charge           Charge          ....    0
 Multiplicity           Mult            ....    1
 Number of Electrons    NEL             ....   76
 Basis Dimension        Dim             ....  381
 Nuclear Repulsion      ENuc            ....    439.5965001411 Eh

Convergence Acceleration:
 DIIS                   CNVDIIS         .... on
   Start iteration      DIISMaxIt       ....    12
   Startup error        DIISStart       ....  0.200000
   # of expansion vecs  DIISMaxEq       ....     5
   Bias factor          DIISBfac        ....   1.050
   Max. coefficient     DIISMaxC        ....  10.000
 Newton-Raphson         CNVNR           .... off
 SOSCF                  CNVSOSCF        .... on
   Start iteration      SOSCFMaxIt      ....   150
   Startup grad/error   SOSCFStart      ....  0.003300
 Level Shifting         CNVShift        .... on
   Level shift para.    LevelShift      ....    0.2500
   Turn off err/grad.   ShiftErr        ....    0.0010
 Zerner damping         CNVZerner       .... off
 Static damping         CNVDamp         .... on
   Fraction old density DampFac         ....    0.7000
   Max. Damping (<1)    DampMax         ....    0.9800
   Min. Damping (>=0)   DampMin         ....    0.0000
   Turn off err/grad.   DampErr         ....    0.1000
 Fernandez-Rico         CNVRico         .... off

SCF Procedure:
 Maximum # iterations   MaxIter         ....   125
 SCF integral mode      SCFMode         .... Direct
   Integral package                     .... LIBINT
 Reset frequency        DirectResetFreq ....    20
 Integral Threshold     Thresh          ....  1.000e-10 Eh
 Primitive CutOff       TCut            ....  1.000e-11 Eh

Convergence Tolerance:
 Convergence Check Mode ConvCheckMode   .... Total+1el-Energy
 Convergence forced     ConvForced      .... 0
 Energy Change          TolE            ....  1.000e-06 Eh
 1-El. energy change                    ....  1.000e-03 Eh
 Orbital Gradient       TolG            ....  5.000e-05
 Orbital Rotation angle TolX            ....  5.000e-05
 DIIS Error             TolErr          ....  1.000e-06


Diagonalization of the overlap matrix:
Smallest eigenvalue                        ... 6.009e-07
Time for diagonalization                   ...    0.021 sec
Threshold for overlap eigenvalues          ... 1.000e-08
Number of eigenvalues below threshold      ... 0
Time for construction of square roots      ...    0.019 sec
Total time needed                          ...    0.041 sec

-------------------
DFT GRID GENERATION
-------------------

General Integration Accuracy     IntAcc      ...  4.670
Radial Grid Type                 RadialGrid  ... Gauss-Chebyshev
Angular Grid (max. acc.)         AngularGrid ... Lebedev-302
Angular grid pruning method      GridPruning ... 3 (G Style)
Weight generation scheme         WeightScheme... Becke
Basis function cutoff            BFCut       ...    1.0000e-10
Integration weight cutoff        WCut        ...    1.0000e-14
Grids for H and He will be reduced by one unit

# of grid points (after initial pruning)     ...  67276 (   0.0 sec)
# of grid points (after weights+screening)   ...  62490 (   0.0 sec)
nearest neighbour list constructed           ...    0.0 sec
Grid point re-assignment to atoms done       ...    0.0 sec
Grid point division into batches done        ...    0.3 sec
Reduced shell lists constructed in    0.3 sec

Total number of grid points                  ...    62490
Total number of batches                      ...      983
Average number of points per batch           ...       63
Average number of grid points per atom       ...     4807
Average number of shells per batch           ...   104.07 (74.87%)
Average number of basis functions per batch  ...   298.17 (78.26%)
Average number of large shells per batch     ...    87.67 (84.24%)
Average number of large basis fcns per batch ...   249.52 (83.69%)
Maximum spatial batch extension              ...   3.87,  3.90, 15.36 au
Average spatial batch extension              ...   0.07,  0.08,  0.10 au

Time for grid setup =    0.412 sec

------------------------------
INITIAL GUESS: MODEL POTENTIAL
------------------------------
Loading Hartree-Fock densities                     ... done
Calculating cut-offs                               ... done
Setting up the integral package                    ... done
Initializing the effective Hamiltonian             ... done
Starting the Coulomb interaction                   ... done (   0.0 sec)
Reading the grid                                   ... done
Mapping shells                                     ... done
Starting the XC term evaluation                    ... done (   0.1 sec)
  promolecular density results
     # of electrons  =     75.996998702
     EX              =   -117.651772290
     EC              =     -3.039793123
     EX+EC           =   -120.691565413
Transforming the Hamiltonian                       ... done (   0.0 sec)
Diagonalizing the Hamiltonian                      ... done (   0.0 sec)
Back transforming the eigenvectors                 ... done (   0.0 sec)
Now organizing SCF variables                       ... done
                      ------------------
                      INITIAL GUESS DONE (   0.6 sec)
                      ------------------
--------------
SCF ITERATIONS
--------------
ITER       Energy         Delta-E        Max-DP      RMS-DP      [F,P]     Damp
               ***  Starting incremental Fock matrix formation  ***
  0  -2633.7545016720   0.000000000000 0.10882295  0.00227452  0.1570018 0.7000
  1  -2633.8320104306  -0.077508758597 0.07745141  0.00169056  0.0908908 0.7000
                               ***Turning on DIIS***
  2  -2633.8717818507  -0.039771420090 0.18800133  0.00385771  0.0444920 0.0000
  3  -2633.9354287692  -0.063646918537 0.03757578  0.00077754  0.0413269 0.0000
  4  -2633.9465541187  -0.011125349516 0.02247984  0.00031590  0.0057852 0.0000
  5  -2633.9469866549  -0.000432536116 0.02805651  0.00028858  0.0033086 0.0000
                      *** Initiating the SOSCF procedure ***
                           *** Shutting down DIIS ***
                      *** Re-Reading the Fockian *** 
                      *** Removing any level shift *** 
ITER      Energy       Delta-E        Grad      Rot      Max-DP    RMS-DP
  6  -2633.94708986  -0.0001032061  0.001702  0.001702  0.013772  0.000124
               *** Restarting incremental Fock matrix formation ***
  7  -2633.94712737  -0.0000375121  0.000958  0.002727  0.008841  0.000066
  8  -2633.94714179  -0.0000144134  0.000350  0.002542  0.005635  0.000059
  9  -2633.94714516  -0.0000033721  0.000246  0.000466  0.005775  0.000056
 10  -2633.94714620  -0.0000010394  0.000080  0.000155  0.006305  0.000090
 11  -2633.94714625  -0.0000000474  0.000069  0.000075  0.003668  0.000039
                 **** Energy Check signals convergence ****
              ***Rediagonalizing the Fockian in SOSCF/NRSCF***

               *****************************************************
               *                     SUCCESS                       *
               *           SCF CONVERGED AFTER  12 CYCLES          *
               *****************************************************


Setting up the DFT-NL grid :

General Integration Accuracy     IntAcc      ...  4.340
Radial Grid Type                 RadialGrid  ... Gauss-Chebyshev
Angular Grid (max. acc.)         AngularGrid ... Lebedev-110
Angular grid pruning method      GridPruning ... 3 (G Style)
Weight generation scheme         WeightScheme... Becke
Basis function cutoff            BFCut       ...    1.0000e-10
Integration weight cutoff        WCut        ...    1.0000e-14
Grids for H and He will be reduced by one unit

# of grid points (after initial pruning)     ...  17650 (   0.0 sec)
# of grid points (after weights+screening)   ...  16568 (   0.0 sec)
nearest neighbour list constructed           ...    0.0 sec
Grid point re-assignment to atoms done       ...    0.0 sec
Grid point division into batches done        ...    0.0 sec
Reduced shell lists constructed in    0.0 sec

Total number of grid points                  ...    16568
Total number of batches                      ...      265
Average number of points per batch           ...       62
Average number of grid points per atom       ...     1274
Average number of shells per batch           ...   104.85 (75.43%)
Average number of basis functions per batch  ...   302.69 (79.45%)
Average number of large shells per batch     ...    89.46 (85.33%)
Average number of large basis fcns per batch ...   256.08 (84.60%)
Maximum spatial batch extension              ...   3.79,  4.26, 18.55 au
Average spatial batch extension              ...   0.11,  0.10,  0.22 au

Final grid set up in    0.0 sec

-------------------------------------------------------------------------------
                         DFT-NL dispersion correction                          
-------------------------------------------------------------------------------

SC Energy -2633.947146266 
NL    Energy 0.299536901 
SC+NL Energy -2633.647609364 
NL done in    0.1 sec
-------------------------------------------------------------------------------

----------------
TOTAL SCF ENERGY
----------------

Total Energy       :        -2633.64760936 Eh          -71665.19484 eV

Components:
Nuclear Repulsion  :          439.59650014 Eh           11962.02891 eV
Electronic Energy  :        -3073.24410951 Eh          -83627.22375 eV
One Electron Energy:        -4529.20343414 Eh         -123245.89114 eV
Two Electron Energy:         1455.95932463 Eh           39618.66740 eV

Virial components:
Potential Energy   :        -5263.41306412 Eh         -143224.75088 eV
Kinetic Energy     :         2629.76545476 Eh           71559.55604 eV
Virial Ratio       :            2.00147624


DFT components:
N(Alpha)           :       38.000031108691 electrons
N(Beta)            :       38.000031108691 electrons
N(Total)           :       76.000062217381 electrons
E(X)               :      -90.747523259970 Eh       
E(C)               :       -3.230907756948 Eh       
NL Energy, E(C,NL) :        0.299536901251 Eh       
E(XC)              :      -93.678894115667 Eh       
DFET-embed. en.    :        0.000000000000 Eh       

---------------
SCF CONVERGENCE
---------------

  Last Energy change         ...   -2.0187e-08  Tolerance :   1.0000e-06
  Last MAX-Density change    ...    6.8402e-03  Tolerance :   1.0000e-05
  Last RMS-Density change    ...    1.1361e-04  Tolerance :   1.0000e-06
  Last Orbital Gradient      ...    5.7412e-06  Tolerance :   5.0000e-05
  Last Orbital Rotation      ...    1.8440e-05  Tolerance :   5.0000e-05

             **** THE GBW FILE WAS UPDATED (MOR23_phseh.gbw) ****
             **** DENSITY FILE WAS UPDATED (MOR23_phseh.scfp) ****
             **** ENERGY FILE WAS UPDATED (MOR23_phseh.en.tmp) ****
             **** THE GBW FILE WAS UPDATED (MOR23_phseh.gbw) ****
             **** DENSITY FILE WAS UPDATED (MOR23_phseh.scfp) ****
----------------
ORBITAL ENERGIES
----------------

  NO   OCC          E(Eh)            E(eV) 
   0   2.0000    -454.532603    -12368.4609 
   1   2.0000     -58.385209     -1588.7423 
   2   2.0000     -52.313438     -1423.5210 
   3   2.0000     -52.312272     -1423.4893 
   4   2.0000     -52.310194     -1423.4327 
   5   2.0000     -10.393520      -282.8220 
   6   2.0000     -10.361747      -281.9575 
   7   2.0000     -10.361288      -281.9450 
   8   2.0000     -10.360579      -281.9257 
   9   2.0000     -10.360464      -281.9226 
  10   2.0000     -10.356087      -281.8035 
  11   2.0000      -8.017486      -218.1669 
  12   2.0000      -5.921953      -161.1445 
  13   2.0000      -5.917617      -161.0265 
  14   2.0000      -5.909932      -160.8174 
  15   2.0000      -2.243815       -61.0573 
  16   2.0000      -2.243080       -61.0373 
  17   2.0000      -2.236504       -60.8584 
  18   2.0000      -2.233122       -60.7663 
  19   2.0000      -2.232225       -60.7419 
  20   2.0000      -0.995199       -27.0807 
  21   2.0000      -0.899293       -24.4710 
  22   2.0000      -0.880247       -23.9527 
  23   2.0000      -0.814958       -22.1761 
  24   2.0000      -0.732773       -19.9398 
  25   2.0000      -0.710945       -19.3458 
  26   2.0000      -0.632876       -17.2214 
  27   2.0000      -0.574226       -15.6255 
  28   2.0000      -0.567105       -15.4317 
  29   2.0000      -0.536423       -14.5968 
  30   2.0000      -0.514547       -14.0015 
  31   2.0000      -0.497320       -13.5328 
  32   2.0000      -0.470673       -12.8077 
  33   2.0000      -0.453271       -12.3341 
  34   2.0000      -0.420733       -11.4487 
  35   2.0000      -0.390587       -10.6284 
  36   2.0000      -0.355583        -9.6759 
  37   2.0000      -0.307138        -8.3577 
  38   0.0000       0.027042         0.7359 
  39   0.0000       0.033406         0.9090 
  40   0.0000       0.039934         1.0866 
  41   0.0000       0.044069         1.1992 
  42   0.0000       0.050967         1.3869 
  43   0.0000       0.054126         1.4728 
  44   0.0000       0.065298         1.7768 
  45   0.0000       0.065767         1.7896 
  46   0.0000       0.074966         2.0399 
  47   0.0000       0.089504         2.4355 
  48   0.0000       0.101036         2.7493 
  49   0.0000       0.111775         3.0415 
  50   0.0000       0.123098         3.3497 
  51   0.0000       0.136940         3.7263 
  52   0.0000       0.145306         3.9540 
  53   0.0000       0.153631         4.1805 
  54   0.0000       0.164074         4.4647 
  55   0.0000       0.176257         4.7962 
  56   0.0000       0.176556         4.8043 
  57   0.0000       0.189705         5.1621 
  58   0.0000       0.190452         5.1825 
  59   0.0000       0.204681         5.5697 
  60   0.0000       0.207681         5.6513 
  61   0.0000       0.210999         5.7416 
  62   0.0000       0.216717         5.8972 
  63   0.0000       0.228685         6.2228 
  64   0.0000       0.236286         6.4297 
  65   0.0000       0.238411         6.4875 
  66   0.0000       0.242673         6.6035 
  67   0.0000       0.253324         6.8933 
  68   0.0000       0.259131         7.0513 
  69   0.0000       0.266938         7.2638 
  70   0.0000       0.273720         7.4483 
  71   0.0000       0.283990         7.7278 
  72   0.0000       0.291751         7.9390 
  73   0.0000       0.294219         8.0061 
  74   0.0000       0.295593         8.0435 
  75   0.0000       0.300462         8.1760 
  76   0.0000       0.322600         8.7784 
  77   0.0000       0.324964         8.8427 
  78   0.0000       0.326956         8.8969 
  79   0.0000       0.340319         9.2606 
  80   0.0000       0.341663         9.2971 
  81   0.0000       0.346615         9.4319 
  82   0.0000       0.355090         9.6625 
  83   0.0000       0.356499         9.7008 
  84   0.0000       0.361895         9.8477 
  85   0.0000       0.367392         9.9972 
  86   0.0000       0.369798        10.0627 
  87   0.0000       0.388013        10.5584 
  88   0.0000       0.394285        10.7290 
  89   0.0000       0.398827        10.8526 
  90   0.0000       0.401178        10.9166 
  91   0.0000       0.408444        11.1143 
  92   0.0000       0.411530        11.1983 
  93   0.0000       0.424682        11.5562 
  94   0.0000       0.424906        11.5623 
  95   0.0000       0.427531        11.6337 
  96   0.0000       0.427691        11.6381 
  97   0.0000       0.434540        11.8244 
  98   0.0000       0.443550        12.0696 
  99   0.0000       0.449870        12.2416 
 100   0.0000       0.463204        12.6044 
 101   0.0000       0.467787        12.7291 
 102   0.0000       0.473030        12.8718 
 103   0.0000       0.476684        12.9712 
 104   0.0000       0.487739        13.2721 
 105   0.0000       0.490081        13.3358 
 106   0.0000       0.495514        13.4836 
 107   0.0000       0.514836        14.0094 
 108   0.0000       0.524565        14.2741 
 109   0.0000       0.528334        14.3767 
 110   0.0000       0.533500        14.5173 
 111   0.0000       0.536372        14.5954 
 112   0.0000       0.538870        14.6634 
 113   0.0000       0.556440        15.1415 
 114   0.0000       0.561151        15.2697 
 115   0.0000       0.574737        15.6394 
 116   0.0000       0.584207        15.8971 
 117   0.0000       0.598202        16.2779 
 118   0.0000       0.619857        16.8672 
 119   0.0000       0.623526        16.9670 
 120   0.0000       0.627105        17.0644 
 121   0.0000       0.642598        17.4860 
 122   0.0000       0.647539        17.6204 
 123   0.0000       0.668030        18.1780 
 124   0.0000       0.672874        18.3098 
 125   0.0000       0.687873        18.7180 
 126   0.0000       0.688768        18.7423 
 127   0.0000       0.700849        19.0711 
 128   0.0000       0.705093        19.1865 
 129   0.0000       0.712980        19.4012 
 130   0.0000       0.717070        19.5125 
 131   0.0000       0.720495        19.6057 
 132   0.0000       0.733270        19.9533 
 133   0.0000       0.735088        20.0028 
 134   0.0000       0.751908        20.4605 
 135   0.0000       0.753171        20.4948 
 136   0.0000       0.756956        20.5978 
 137   0.0000       0.769042        20.9267 
 138   0.0000       0.772906        21.0319 
 139   0.0000       0.776581        21.1318 
 140   0.0000       0.789744        21.4900 
 141   0.0000       0.798224        21.7208 
 142   0.0000       0.807611        21.9762 
 143   0.0000       0.812833        22.1183 
 144   0.0000       0.815275        22.1848 
 145   0.0000       0.817442        22.2437 
 146   0.0000       0.819147        22.2901 
 147   0.0000       0.844261        22.9735 
 148   0.0000       0.853575        23.2270 
 149   0.0000       0.874376        23.7930 
 150   0.0000       0.882437        24.0123 
 151   0.0000       0.890099        24.2208 
 152   0.0000       0.939074        25.5535 
 153   0.0000       0.963425        26.2161 
 154   0.0000       0.964384        26.2422 
 155   0.0000       0.969671        26.3861 
 156   0.0000       0.969758        26.3885 
 157   0.0000       0.979380        26.6503 
 158   0.0000       0.985344        26.8126 
 159   0.0000       1.014197        27.5977 
 160   0.0000       1.016330        27.6557 
 161   0.0000       1.026730        27.9387 
 162   0.0000       1.050940        28.5975 
 163   0.0000       1.069846        29.1120 
 164   0.0000       1.103906        30.0388 
 165   0.0000       1.110601        30.2210 
 166   0.0000       1.132333        30.8124 
 167   0.0000       1.138690        30.9853 
 168   0.0000       1.158698        31.5298 
 169   0.0000       1.183751        32.2115 
 170   0.0000       1.195442        32.5296 
 171   0.0000       1.226108        33.3641 
 172   0.0000       1.245271        33.8855 
 173   0.0000       1.268074        34.5061 
 174   0.0000       1.287018        35.0215 
 175   0.0000       1.294997        35.2387 
 176   0.0000       1.303473        35.4693 
 177   0.0000       1.308011        35.5928 
 178   0.0000       1.329132        36.1675 
 179   0.0000       1.331948        36.2442 
 180   0.0000       1.356585        36.9146 
 181   0.0000       1.378860        37.5207 
 182   0.0000       1.389253        37.8035 
 183   0.0000       1.399396        38.0795 
 184   0.0000       1.442880        39.2627 
 185   0.0000       1.455841        39.6154 
 186   0.0000       1.477313        40.1997 
 187   0.0000       1.494905        40.6784 
 188   0.0000       1.507775        41.0286 
 189   0.0000       1.508296        41.0428 
 190   0.0000       1.528585        41.5949 
 191   0.0000       1.536046        41.7979 
 192   0.0000       1.551708        42.2241 
 193   0.0000       1.562905        42.5288 
 194   0.0000       1.575493        42.8713 
 195   0.0000       1.578759        42.9602 
 196   0.0000       1.594792        43.3965 
 197   0.0000       1.613283        43.8997 
 198   0.0000       1.628671        44.3184 
 199   0.0000       1.649207        44.8772 
 200   0.0000       1.666059        45.3358 
 201   0.0000       1.675002        45.5791 
 202   0.0000       1.691805        46.0363 
 203   0.0000       1.705634        46.4127 
 204   0.0000       1.735628        47.2288 
 205   0.0000       1.766300        48.0635 
 206   0.0000       1.776089        48.3298 
 207   0.0000       1.790070        48.7103 
 208   0.0000       1.799575        48.9689 
 209   0.0000       1.811735        49.2998 
 210   0.0000       1.817788        49.4645 
 211   0.0000       1.831294        49.8321 
 212   0.0000       1.845492        50.2184 
 213   0.0000       1.851094        50.3708 
 214   0.0000       1.901185        51.7339 
 215   0.0000       1.907669        51.9103 
 216   0.0000       1.913707        52.0746 
 217   0.0000       1.942172        52.8492 
 218   0.0000       1.959273        53.3145 
 219   0.0000       1.982630        53.9501 
 220   0.0000       1.990726        54.1704 
 221   0.0000       2.008619        54.6573 
 222   0.0000       2.022890        55.0456 
 223   0.0000       2.049448        55.7683 
 224   0.0000       2.071202        56.3603 
 225   0.0000       2.126258        57.8584 
 226   0.0000       2.173587        59.1463 
 227   0.0000       2.184720        59.4493 
 228   0.0000       2.227327        60.6087 
 229   0.0000       2.240172        60.9582 
 230   0.0000       2.276875        61.9569 
 231   0.0000       2.280896        62.0663 
 232   0.0000       2.301215        62.6192 
 233   0.0000       2.358151        64.1685 
 234   0.0000       2.449151        66.6448 
 235   0.0000       2.456605        66.8476 
 236   0.0000       2.466404        67.1143 
 237   0.0000       2.482353        67.5483 
 238   0.0000       2.512933        68.3804 
 239   0.0000       2.571179        69.9653 
 240   0.0000       2.594037        70.5873 
 241   0.0000       2.625739        71.4500 
 242   0.0000       2.677318        72.8535 
 243   0.0000       2.752932        74.9111 
 244   0.0000       2.765592        75.2556 
 245   0.0000       2.774324        75.4932 
 246   0.0000       2.807939        76.4079 
 247   0.0000       2.814960        76.5989 
 248   0.0000       2.821648        76.7809 
 249   0.0000       2.850563        77.5678 
 250   0.0000       2.880555        78.3839 
 251   0.0000       2.892528        78.7097 
 252   0.0000       2.898311        78.8671 
 253   0.0000       2.929304        79.7104 
 254   0.0000       2.947307        80.2003 
 255   0.0000       2.983964        81.1978 
 256   0.0000       2.993033        81.4446 
 257   0.0000       3.093518        84.1789 
 258   0.0000       3.094698        84.2110 
 259   0.0000       3.123615        84.9979 
 260   0.0000       3.126904        85.0874 
 261   0.0000       3.136848        85.3580 
 262   0.0000       3.161978        86.0418 
 263   0.0000       3.182858        86.6100 
 264   0.0000       3.198151        87.0261 
 265   0.0000       3.210701        87.3676 
 266   0.0000       3.228063        87.8401 
 267   0.0000       3.232895        87.9715 
 268   0.0000       3.237273        88.0907 
 269   0.0000       3.244173        88.2784 
 270   0.0000       3.253112        88.5217 
 271   0.0000       3.273921        89.0879 
 272   0.0000       3.314966        90.2048 
 273   0.0000       3.319243        90.3212 
 274   0.0000       3.322492        90.4096 
 275   0.0000       3.374128        91.8147 
 276   0.0000       3.397045        92.4383 
 277   0.0000       3.399066        92.4933 
 278   0.0000       3.427563        93.2687 
 279   0.0000       3.432486        93.4027 
 280   0.0000       3.450209        93.8850 
 281   0.0000       3.459133        94.1278 
 282   0.0000       3.461272        94.1860 
 283   0.0000       3.464153        94.2644 
 284   0.0000       3.477375        94.6242 
 285   0.0000       3.489603        94.9569 
 286   0.0000       3.517249        95.7092 
 287   0.0000       3.527666        95.9927 
 288   0.0000       3.557473        96.8038 
 289   0.0000       3.570465        97.1573 
 290   0.0000       3.576411        97.3191 
 291   0.0000       3.579237        97.3960 
 292   0.0000       3.600610        97.9776 
 293   0.0000       3.624095        98.6166 
 294   0.0000       3.664783        99.7238 
 295   0.0000       3.667750        99.8046 
 296   0.0000       3.690981       100.4367 
 297   0.0000       3.736289       101.6696 
 298   0.0000       3.742845       101.8480 
 299   0.0000       3.767430       102.5170 
 300   0.0000       3.797596       103.3378 
 301   0.0000       3.821504       103.9884 
 302   0.0000       3.822433       104.0137 
 303   0.0000       3.824372       104.0665 
 304   0.0000       3.857142       104.9582 
 305   0.0000       3.866609       105.2158 
 306   0.0000       3.872508       105.3763 
 307   0.0000       3.882563       105.6499 
 308   0.0000       3.889399       105.8359 
 309   0.0000       3.919040       106.6425 
 310   0.0000       3.928043       106.8875 
 311   0.0000       3.959998       107.7570 
 312   0.0000       3.964613       107.8826 
 313   0.0000       3.977954       108.2456 
 314   0.0000       4.007410       109.0472 
 315   0.0000       4.009105       109.0933 
 316   0.0000       4.013784       109.2206 
 317   0.0000       4.073209       110.8376 
 318   0.0000       4.079733       111.0152 
 319   0.0000       4.114101       111.9504 
 320   0.0000       4.139258       112.6349 
 321   0.0000       4.162381       113.2641 
 322   0.0000       4.187954       113.9600 
 323   0.0000       4.231065       115.1331 
 324   0.0000       4.262999       116.0021 
 325   0.0000       4.263665       116.0202 
 326   0.0000       4.288865       116.7059 
 327   0.0000       4.314248       117.3967 
 328   0.0000       4.319507       117.5397 
 329   0.0000       4.320696       117.5721 
 330   0.0000       4.333560       117.9222 
 331   0.0000       4.349054       118.3438 
 332   0.0000       4.362089       118.6985 
 333   0.0000       4.381421       119.2245 
 334   0.0000       4.422071       120.3307 
 335   0.0000       4.436818       120.7319 
 336   0.0000       4.454632       121.2167 
 337   0.0000       4.466723       121.5457 
 338   0.0000       4.483979       122.0153 
 339   0.0000       4.578293       124.5817 
 340   0.0000       4.633782       126.0916 
 341   0.0000       4.644409       126.3808 
 342   0.0000       4.682035       127.4046 
 343   0.0000       4.700801       127.9153 
 344   0.0000       4.720218       128.4437 
 345   0.0000       4.742153       129.0405 
 346   0.0000       4.775993       129.9614 
 347   0.0000       4.812505       130.9549 
 348   0.0000       4.831899       131.4827 
 349   0.0000       4.840208       131.7088 
 350   0.0000       4.849373       131.9582 
 351   0.0000       4.853100       132.0596 
 352   0.0000       4.907688       133.5450 
 353   0.0000       4.941567       134.4669 
 354   0.0000       5.009259       136.3089 
 355   0.0000       5.026533       136.7789 
 356   0.0000       5.078917       138.2044 
 357   0.0000       5.147702       140.0761 
 358   0.0000       5.267452       143.3347 
 359   0.0000       5.295977       144.1109 
 360   0.0000       5.357657       145.7893 
 361   0.0000       5.370207       146.1307 
 362   0.0000       5.399140       146.9181 
 363   0.0000       5.465641       148.7276 
 364   0.0000       5.522735       150.2812 
 365   0.0000       5.523567       150.3039 
 366   0.0000       5.690888       154.8569 
 367   0.0000       5.724538       155.7726 
 368   0.0000       5.752339       156.5291 
 369   0.0000       5.820406       158.3813 
 370   0.0000       5.967844       162.3933 
 371   0.0000       6.071201       165.2058 
 372   0.0000       6.213569       169.0798 
 373   0.0000       6.664775       181.3577 
 374   0.0000       7.538222       205.1254 
 375   0.0000      23.186410       630.9343 
 376   0.0000      23.426462       637.4665 
 377   0.0000      23.517163       639.9345 
 378   0.0000      23.576806       641.5575 
 379   0.0000      23.648175       643.4995 
 380   0.0000      24.354052       662.7075 

                    ********************************
                    * MULLIKEN POPULATION ANALYSIS *
                    ********************************

-----------------------
MULLIKEN ATOMIC CHARGES
-----------------------
   0 C :    0.314158
   1 C :    0.001161
   2 C :   -0.219126
   3 C :   -0.272352
   4 C :   -0.176290
   5 C :   -0.222880
   6 Se:   -0.010807
   7 H :    0.023856
   8 H :    0.040205
   9 H :    0.131365
  10 H :    0.158869
  11 H :    0.135277
  12 H :    0.096564
Sum of atomic charges:    0.0000000

--------------------------------
MULLIKEN REDUCED ORBITAL CHARGES
--------------------------------
  0 C s       :     3.417291  s :     3.417291
      pz      :     0.975485  p :     2.018935
      px      :     0.559969
      py      :     0.483481
      dz2     :    -0.010865  d :     0.241261
      dxz     :     0.058757
      dyz     :     0.045450
      dx2y2   :     0.003416
      dxy     :     0.144504
      f0      :     0.001784  f :     0.008356
      f+1     :     0.000736
      f-1     :     0.000631
      f+2     :     0.000589
      f-2     :     0.000981
      f+3     :     0.001191
      f-3     :     0.002443
  1 C s       :     3.314759  s :     3.314759
      pz      :     0.932915  p :     2.718834
      px      :     1.006501
      py      :     0.779418
      dz2     :     0.004271  d :    -0.042109
      dxz     :     0.031070
      dyz     :     0.001582
      dx2y2   :    -0.029222
      dxy     :    -0.049809
      f0      :     0.001478  f :     0.007355
      f+1     :     0.000623
      f-1     :     0.000587
      f+2     :     0.000808
      f-2     :     0.000481
      f+3     :     0.001099
      f-3     :     0.002280
  2 C s       :     3.423550  s :     3.423550
      pz      :     0.921056  p :     2.735097
      px      :     0.865700
      py      :     0.948341
      dz2     :    -0.002081  d :     0.053230
      dxz     :     0.034433
      dyz     :     0.015507
      dx2y2   :     0.024002
      dxy     :    -0.018630
      f0      :     0.001452  f :     0.007249
      f+1     :     0.000608
      f-1     :     0.000576
      f+2     :     0.000857
      f-2     :     0.000453
      f+3     :     0.001049
      f-3     :     0.002253
  3 C s       :     3.457764  s :     3.457764
      pz      :     0.945707  p :     2.775949
      px      :     0.997691
      py      :     0.832551
      dz2     :     0.001880  d :     0.031440
      dxz     :     0.007988
      dyz     :     0.040058
      dx2y2   :    -0.010769
      dxy     :    -0.007717
      f0      :     0.001442  f :     0.007199
      f+1     :     0.000565
      f-1     :     0.000627
      f+2     :     0.000250
      f-2     :     0.000964
      f+3     :     0.001047
      f-3     :     0.002304
  4 C s       :     3.408760  s :     3.408760
      pz      :     0.917295  p :     2.715147
      px      :     0.873682
      py      :     0.924170
      dz2     :    -0.001700  d :     0.045118
      dxz     :     0.031723
      dyz     :     0.013734
      dx2y2   :     0.012092
      dxy     :    -0.010731
      f0      :     0.001453  f :     0.007265
      f+1     :     0.000608
      f-1     :     0.000574
      f+2     :     0.000841
      f-2     :     0.000475
      f+3     :     0.001048
      f-3     :     0.002266
  5 C s       :     3.316047  s :     3.316047
      pz      :     0.942425  p :     2.850513
      px      :     1.017430
      py      :     0.890657
      dz2     :    -0.001085  d :     0.048866
      dxz     :     0.040138
      dyz     :     0.006667
      dx2y2   :     0.024497
      dxy     :    -0.021351
      f0      :     0.001492  f :     0.007453
      f+1     :     0.000633
      f-1     :     0.000597
      f+2     :     0.000838
      f-2     :     0.000460
      f+3     :     0.001098
      f-3     :     0.002337
  6 Ses       :     7.937670  s :     7.937670
      pz      :     5.863028  p :    15.966044
      px      :     5.044031
      py      :     5.058985
      dz2     :     2.012412  d :    10.094654
      dxz     :     2.022301
      dyz     :     2.001667
      dx2y2   :     2.046003
      dxy     :     2.012272
      f0      :     0.001314  f :     0.012438
      f+1     :     0.002075
      f-1     :     0.002047
      f+2     :     0.001224
      f-2     :     0.000072
      f+3     :     0.002160
      f-3     :     0.003546
  7 H s       :     0.932552  s :     0.932552
      pz      :     0.036068  p :     0.041675
      px      :     0.002117
      py      :     0.003490
      dz2     :     0.000220  d :     0.001917
      dxz     :     0.000017
      dyz     :     0.000680
      dx2y2   :     0.000503
      dxy     :     0.000496
  8 H s       :     0.902532  s :     0.902532
      pz      :     0.014924  p :     0.054794
      px      :     0.037301
      py      :     0.002568
      dz2     :     0.000162  d :     0.002470
      dxz     :     0.000181
      dyz     :     0.000556
      dx2y2   :     0.000928
      dxy     :     0.000643
  9 H s       :     0.829677  s :     0.829677
      pz      :     0.020203  p :     0.036644
      px      :     0.010116
      py      :     0.006325
      dz2     :     0.000145  d :     0.002314
      dxz     :     0.000185
      dyz     :     0.000518
      dx2y2   :     0.000842
      dxy     :     0.000625
 10 H s       :     0.798784  s :     0.798784
      pz      :     0.022045  p :     0.040056
      px      :     0.005987
      py      :     0.012023
      dz2     :     0.000143  d :     0.002292
      dxz     :     0.000697
      dyz     :     0.000012
      dx2y2   :     0.000503
      dxy     :     0.000937
 11 H s       :     0.826545  s :     0.826545
      pz      :     0.020027  p :     0.035864
      px      :     0.009716
      py      :     0.006121
      dz2     :     0.000144  d :     0.002315
      dxz     :     0.000174
      dyz     :     0.000527
      dx2y2   :     0.000829
      dxy     :     0.000640
 12 H s       :     0.876522  s :     0.876522
      pz      :     0.013759  p :     0.024490
      px      :     0.010496
      py      :     0.000235
      dz2     :     0.000161  d :     0.002424
      dxz     :     0.000192
      dyz     :     0.000543
      dx2y2   :     0.000904
      dxy     :     0.000624


                     *******************************
                     * LOEWDIN POPULATION ANALYSIS *
                     *******************************

----------------------
LOEWDIN ATOMIC CHARGES
----------------------
   0 C :   -0.571588
   1 C :   -0.045558
   2 C :    0.007868
   3 C :    0.004550
   4 C :    0.007426
   5 C :   -0.057987
   6 Se:    0.917069
   7 H :   -0.250819
   8 H :   -0.010694
   9 H :    0.002841
  10 H :   -0.001076
  11 H :    0.002984
  12 H :   -0.005017

-------------------------------
LOEWDIN REDUCED ORBITAL CHARGES
-------------------------------
  0 C s       :     2.703564  s :     2.703564
      pz      :     0.782474  p :     2.692950
      px      :     0.908947
      py      :     1.001528
      dz2     :     0.093704  d :     1.126226
      dxz     :     0.225546
      dyz     :     0.144946
      dx2y2   :     0.381576
      dxy     :     0.280454
      f0      :     0.003744  f :     0.048848
      f+1     :     0.003594
      f-1     :     0.004420
      f+2     :     0.003953
      f-2     :     0.007205
      f+3     :     0.008583
      f-3     :     0.017349
  1 C s       :     2.649794  s :     2.649794
      pz      :     0.746413  p :     2.618715
      px      :     0.950003
      py      :     0.922299
      dz2     :     0.066803  d :     0.733054
      dxz     :     0.118796
      dyz     :     0.063084
      dx2y2   :     0.221899
      dxy     :     0.262474
      f0      :     0.002571  f :     0.043995
      f+1     :     0.004056
      f-1     :     0.003662
      f+2     :     0.005805
      f-2     :     0.003608
      f+3     :     0.008961
      f-3     :     0.015332
  2 C s       :     2.651087  s :     2.651087
      pz      :     0.723407  p :     2.600574
      px      :     0.945751
      py      :     0.931416
      dz2     :     0.059813  d :     0.696880
      dxz     :     0.116744
      dyz     :     0.063625
      dx2y2   :     0.201736
      dxy     :     0.254962
      f0      :     0.002519  f :     0.043591
      f+1     :     0.003864
      f-1     :     0.003515
      f+2     :     0.006325
      f-2     :     0.003306
      f+3     :     0.008711
      f-3     :     0.015352
  3 C s       :     2.651187  s :     2.651187
      pz      :     0.738743  p :     2.614952
      px      :     0.921159
      py      :     0.955050
      dz2     :     0.059330  d :     0.686020
      dxz     :     0.035013
      dyz     :     0.135476
      dx2y2   :     0.280823
      dxy     :     0.175378
      f0      :     0.002515  f :     0.043291
      f+1     :     0.003388
      f-1     :     0.004024
      f+2     :     0.001933
      f-2     :     0.007178
      f+3     :     0.008746
      f-3     :     0.015508
  4 C s       :     2.650802  s :     2.650802
      pz      :     0.722941  p :     2.600532
      px      :     0.946758
      py      :     0.930832
      dz2     :     0.059906  d :     0.697592
      dxz     :     0.118304
      dyz     :     0.061847
      dx2y2   :     0.205410
      dxy     :     0.252125
      f0      :     0.002522  f :     0.043648
      f+1     :     0.003875
      f-1     :     0.003504
      f+2     :     0.006155
      f-2     :     0.003474
      f+3     :     0.008710
      f-3     :     0.015409
  5 C s       :     2.652246  s :     2.652246
      pz      :     0.746571  p :     2.625157
      px      :     0.953708
      py      :     0.924878
      dz2     :     0.065777  d :     0.736567
      dxz     :     0.120916
      dyz     :     0.064764
      dx2y2   :     0.219955
      dxy     :     0.265153
      f0      :     0.002591  f :     0.044017
      f+1     :     0.004050
      f-1     :     0.003679
      f+2     :     0.005974
      f-2     :     0.003451
      f+3     :     0.008923
      f-3     :     0.015349
  6 Ses       :     7.155570  s :     7.155570
      pz      :     5.566409  p :    15.604435
      px      :     4.973027
      py      :     5.064999
      dz2     :     2.041435  d :    10.292753
      dxz     :     2.065003
      dyz     :     2.002078
      dx2y2   :     2.113305
      dxy     :     2.070932
      f0      :     0.002012  f :     0.030173
      f+1     :     0.003937
      f-1     :     0.003180
      f+2     :     0.003030
      f-2     :     0.000036
      f+3     :     0.007359
      f-3     :     0.010620
  7 H s       :     0.827742  s :     0.827742
      pz      :     0.132834  p :     0.403864
      px      :     0.068019
      py      :     0.203011
      dz2     :     0.002300  d :     0.019212
      dxz     :     0.000071
      dyz     :     0.006062
      dx2y2   :     0.007350
      dxy     :     0.003430
  8 H s       :     0.700410  s :     0.700410
      pz      :     0.074950  p :     0.280628
      px      :     0.094664
      py      :     0.111014
      dz2     :     0.002844  d :     0.029656
      dxz     :     0.002080
      dyz     :     0.006603
      dx2y2   :     0.009260
      dxy     :     0.008870
  9 H s       :     0.705519  s :     0.705519
      pz      :     0.074560  p :     0.262405
      px      :     0.079825
      py      :     0.108020
      dz2     :     0.002815  d :     0.029235
      dxz     :     0.002084
      dyz     :     0.006141
      dx2y2   :     0.009231
      dxy     :     0.008964
 10 H s       :     0.707384  s :     0.707384
      pz      :     0.077310  p :     0.264320
      px      :     0.121663
      py      :     0.065347
      dz2     :     0.002816  d :     0.029372
      dxz     :     0.008449
      dyz     :     0.000023
      dx2y2   :     0.008808
      dxy     :     0.009276
 11 H s       :     0.705509  s :     0.705509
      pz      :     0.074388  p :     0.262273
      px      :     0.078941
      py      :     0.108944
      dz2     :     0.002817  d :     0.029234
      dxz     :     0.001958
      dyz     :     0.006263
      dx2y2   :     0.009215
      dxy     :     0.008981
 12 H s       :     0.701123  s :     0.701123
      pz      :     0.074543  p :     0.274360
      px      :     0.088819
      py      :     0.110998
      dz2     :     0.002853  d :     0.029534
      dxz     :     0.002229
      dyz     :     0.006444
      dx2y2   :     0.009201
      dxy     :     0.008806


                      *****************************
                      * MAYER POPULATION ANALYSIS *
                      *****************************

  NA   - Mulliken gross atomic population
  ZA   - Total nuclear charge
  QA   - Mulliken gross atomic charge
  VA   - Mayer's total valence
  BVA  - Mayer's bonded valence
  FA   - Mayer's free valence

  ATOM       NA         ZA         QA         VA         BVA        FA
  0 C      5.6858     6.0000     0.3142     2.4420     2.4420    -0.0000
  1 C      5.9988     6.0000     0.0012     3.1226     3.1226     0.0000
  2 C      6.2191     6.0000    -0.2191     3.4722     3.4722     0.0000
  3 C      6.2724     6.0000    -0.2724     3.2475     3.2475     0.0000
  4 C      6.1763     6.0000    -0.1763     3.4008     3.4008     0.0000
  5 C      6.2229     6.0000    -0.2229     3.4586     3.4586    -0.0000
  6 Se    34.0108    34.0000    -0.0108     2.1727     2.1727    -0.0000
  7 H      0.9761     1.0000     0.0239     1.0171     1.0171    -0.0000
  8 H      0.9598     1.0000     0.0402     1.0055     1.0055     0.0000
  9 H      0.8686     1.0000     0.1314     0.9846     0.9846    -0.0000
 10 H      0.8411     1.0000     0.1589     0.9692     0.9692     0.0000
 11 H      0.8647     1.0000     0.1353     0.9845     0.9845     0.0000
 12 H      0.9034     1.0000     0.0966     0.9598     0.9598    -0.0000

  Mayer bond orders larger than 0.100000
B(  0-C ,  1-C ) :   0.8558 B(  0-C ,  5-C ) :   0.9992 B(  0-C ,  6-Se) :   1.1309 
B(  0-C ,  8-H ) :  -0.2236 B(  0-C , 12-H ) :  -0.1804 B(  1-C ,  2-C ) :   1.2496 
B(  1-C ,  6-Se) :  -0.1026 B(  1-C ,  8-H ) :   1.1317 B(  2-C ,  3-C ) :   1.1716 
B(  2-C ,  9-H ) :   1.0803 B(  3-C ,  4-C ) :   1.1611 B(  3-C , 10-H ) :   1.0398 
B(  4-C ,  5-C ) :   1.2437 B(  4-C , 11-H ) :   1.0802 B(  5-C , 12-H ) :   1.0986 
B(  6-Se,  7-H ) :   0.9918 

-------
TIMINGS
-------

Total SCF time: 0 days 0 hours 1 min 2 sec 

Total time                  ....      62.226 sec
Sum of individual times     ....      61.725 sec  ( 99.2%)

Fock matrix formation       ....      60.630 sec  ( 97.4%)
  XC integration            ....       2.441 sec  (  4.0% of F)
    Basis function eval.    ....       0.230 sec  (  9.4% of XC)
    Density eval.           ....       0.574 sec  ( 23.5% of XC)
    XC-Functional eval.     ....       0.056 sec  (  2.3% of XC)
    XC-Potential eval.      ....       1.079 sec  ( 44.2% of XC)
Diagonalization             ....       0.180 sec  (  0.3%)
Density matrix formation    ....       0.028 sec  (  0.0%)
Population analysis         ....       0.021 sec  (  0.0%)
Initial guess               ....       0.219 sec  (  0.4%)
Orbital Transformation      ....       0.000 sec  (  0.0%)
Orbital Orthonormalization  ....       0.000 sec  (  0.0%)
DIIS solution               ....       0.078 sec  (  0.1%)
SOSCF solution              ....       0.116 sec  (  0.2%)
Grid generation             ....       0.452 sec  (  0.7%)

-------------------------   --------------------
FINAL SINGLE POINT ENERGY     -2633.647609364280
-------------------------   --------------------


                            ***************************************
                            *     ORCA property calculations      *
                            ***************************************

                                    ---------------------
                                    Active property flags
                                    ---------------------
   (+) Dipole Moment


------------------------------------------------------------------------------
                       ORCA ELECTRIC PROPERTIES CALCULATION
------------------------------------------------------------------------------

Dipole Moment Calculation                       ... on
Quadrupole Moment Calculation                   ... off
Polarizability Calculation                      ... off
GBWName                                         ... MOR23_phseh.gbw
Electron density file                           ... MOR23_phseh.scfp
The origin for moment calculation is the CENTER OF MASS  = (-0.334289, -0.022529 -0.000000)

-------------
DIPOLE MOMENT
-------------
                                X             Y             Z
Electronic contribution:    -25.04744      -1.51281      -0.00003
Nuclear contribution   :     25.40592       1.71219       0.00003
                        -----------------------------------------
Total Dipole Moment    :      0.35848       0.19939       0.00000
                        -----------------------------------------
Magnitude (a.u.)       :      0.41020
Magnitude (Debye)      :      1.04265



--------------------
Rotational spectrum 
--------------------
 
Rotational constants in cm-1:     0.185431     0.032154     0.027403 
Rotational constants in MHz :  5559.086830   963.964760   821.511792 

 Dipole components along the rotational axes: 
x,y,z [a.u.] :     0.359986    -0.196659     0.000000 
x,y,z [Debye]:     0.915011    -0.499866     0.000001 

 

Timings for individual modules:

Sum of individual times         ...       63.638 sec (=   1.061 min)
GTO integral calculation        ...        0.950 sec (=   0.016 min)   1.5 %
SCF iterations                  ...       62.688 sec (=   1.045 min)  98.5 %
                             ****ORCA TERMINATED NORMALLY****
TOTAL RUN TIME: 0 days 0 hours 1 minutes 4 seconds 309 msec
