
                                 *****************
                                 * O   R   C   A *
                                 *****************

           --- An Ab Initio, DFT and Semiempirical electronic structure package ---

                  #######################################################
                  #                        -***-                        #
                  #          Department of theory and spectroscopy      #
                  #               Directorship: Frank Neese             #
                  #        Max Planck Institute fuer Kohlenforschung    #
                  #                Kaiser Wilhelm Platz 1               #
                  #                 D-45470 Muelheim/Ruhr               #
                  #                      Germany                        #
                  #                                                     #
                  #                  All rights reserved                #
                  #                        -***-                        #
                  #######################################################


                         Program Version 4.2.0 -  RELEASE  -


 With contributions from (in alphabetic order):
   Daniel Aravena         : Magnetic Suceptibility
   Michael Atanasov       : Ab Initio Ligand Field Theory (pilot matlab implementation)
   Alexander A. Auer      : GIAO ZORA, VPT2
   Ute Becker             : Parallelization
   Giovanni Bistoni       : ED, misc. LED, open-shell LED, HFLED
   Martin Brehm           : Molecular dynamics
   Dmytro Bykov           : SCF Hessian
   Vijay G. Chilkuri      : MRCI spin determinant printing, contributions to CSF-ICE
   Dipayan Datta          : RHF DLPNO-CCSD density
   Achintya Kumar Dutta   : EOM-CC, STEOM-CC
   Dmitry Ganyushin       : Spin-Orbit,Spin-Spin,Magnetic field MRCI
   Miquel Garcia          : C-PCM Hessian, Gaussian charge scheme
   Yang Guo               : DLPNO-NEVPT2, CIM, IAO-localization
   Andreas Hansen         : Spin unrestricted coupled pair/coupled cluster methods
   Benjamin Helmich-Paris : CASSCF linear response (MC-RPA)
   Lee Huntington         : MR-EOM, pCC
   Robert Izsak           : Overlap fitted RIJCOSX, COSX-SCS-MP3, EOM
   Christian Kollmar      : KDIIS, OOCD, Brueckner-CCSD(T), CCSD density
   Simone Kossmann        : Meta GGA functionals, TD-DFT gradient, OOMP2, MP2 Hessian
   Martin Krupicka        : AUTO-CI
   Lucas Lang             : DCDCAS
   Dagmar Lenk            : GEPOL surface, SMD
   Dimitrios Liakos       : Extrapolation schemes; Compound Job, initial MDCI parallelization
   Dimitrios Manganas     : Further ROCIS development; embedding schemes
   Dimitrios Pantazis     : SARC Basis sets
   Taras Petrenko         : DFT Hessian,TD-DFT gradient, ASA, ECA, R-Raman, ABS, FL, XAS/XES, NRVS
   Peter Pinski           : DLPNO-MP2, DLPNO-MP2 Gradient
   Christoph Reimann      : Effective Core Potentials
   Marius Retegan         : Local ZFS, SOC
   Christoph Riplinger    : Optimizer, TS searches, QM/MM, DLPNO-CCSD(T), (RO)-DLPNO pert. Triples
   Tobias Risthaus        : Range-separated hybrids, TD-DFT gradient, RPA, STAB
   Michael Roemelt        : Original ROCIS implementation
   Masaaki Saitow         : Open-shell DLPNO-CCSD energy and density
   Barbara Sandhoefer     : DKH picture change effects
   Avijit Sen             : IP-ROCIS
   Kantharuban Sivalingam : CASSCF convergence, NEVPT2, FIC-MRCI
   Bernardo de Souza      : ESD, SOC TD-DFT
   Georgi Stoychev        : AutoAux, RI-MP2 NMR
   Willem Van den Heuvel  : Paramagnetic NMR
   Boris Wezisla          : Elementary symmetry handling
   Frank Wennmohs         : Technical directorship


 We gratefully acknowledge several colleagues who have allowed us to
 interface, adapt or use parts of their codes:
   Stefan Grimme, W. Hujo, H. Kruse,             : VdW corrections, initial TS optimization,
                  C. Bannwarth                     DFT functionals, gCP, sTDA/sTD-DF
   Ed Valeev, F. Pavosevic, A. Kumar             : LibInt (2-el integral package), F12 methods
   Garnet Chan, S. Sharma, J. Yang, R. Olivares  : DMRG
   Ulf Ekstrom                                   : XCFun DFT Library
   Mihaly Kallay                                 : mrcc  (arbitrary order and MRCC methods)
   Andreas Klamt, Michael Diedenhofen            : otool_cosmo (COSMO solvation model)
   Jiri Pittner, Ondrej Demel                    : Mk-CCSD
   Frank Weinhold                                : gennbo (NPA and NBO analysis)
   Christopher J. Cramer and Donald G. Truhlar   : smd solvation model
   Lars Goerigk                                  : TD-DFT with DH, B97 family of functionals
   V. Asgeirsson, H. Jonsson                     : NEB implementation
   FAccTs GmbH                                   : IRC, NEB, NEB-TS, Multilevel, MM, QM/MM, CI optimization
   S Lehtola, MJT Oliveira, MAL Marques          : LibXC Library


 Your calculation uses the libint2 library for the computation of 2-el integrals
 For citations please refer to: http://libint.valeyev.net

 Your ORCA version has been built with support for libXC version: 4.2.3
 For citations please refer to: https://tddft.org/programs/libxc/

 This ORCA versions uses:
   CBLAS   interface :  Fast vector & matrix operations
   LAPACKE interface :  Fast linear algebra routines
   SCALAPACK package :  Parallel linear algebra routines


Your calculation utilizes the DFT-NL dispersion correction.
Cite in your paper:
Vydrov, O. A.; Van Voorhis, T. J. Chem. Phys. 2010, 133, 244103
Hujo, W.; Grimme, S. J. Chem. Theory Comput. 2011, 7, 3866 
   

----- Orbital basis set information -----
Your calculation utilizes the basis: def2-TZVPPD
   F. Weigend and R. Ahlrichs, Phys. Chem. Chem. Phys. 7, 3297 (2005).
   D. Rappoport and F. Furche, J. Chem. Phys. 133 134105 (2010).

----- AuxJK basis set information -----
Your calculation utilizes the auxiliary basis: def2/JK
   H-Ba, Hf-Rn: F. Weigend, J. Comput. Chem. 29, 167 (2008).

================================================================================
                                        WARNINGS
                       Please study these warnings very carefully!
================================================================================


INFO   : the flag for use of LIBINT has been found!

================================================================================
                                       INPUT FILE
================================================================================
NAME = MOR30_pr12.in
|  1> #
|  2> # MOR30_pr12 wB97M-V/Def2-TZVPPD
|  3> #
|  4> ! wb97m-v def2-tzvppd def2/jk grid4 nofinalgrid
|  5> 
|  6> *xyz 0 1
|  7> Cr      -0.000015    0.000077   -0.030936 
|  8> O       -3.048010    0.000059    0.176284 
|  9> C       -1.899390    0.000055    0.076972 
| 10> C        0.001618   -0.001981    1.838499 
| 11> O        0.002800   -0.003409    2.993522 
| 12> C        1.899510    0.000027    0.074271 
| 13> O        3.048267   -0.000019    0.172029 
| 14> C       -0.000196    1.904845   -0.051611 
| 15> O       -0.000396    3.057825   -0.041163 
| 16> C       -0.000244   -1.904616   -0.055186 
| 17> O       -0.000506   -3.057616   -0.046760 
| 18> C       -0.692601    0.002127   -2.246320 
| 19> H       -1.244106   -0.917771   -2.406195 
| 20> H       -1.243862    0.922423   -2.404834 
| 21> C        0.689570    0.001986   -2.247230 
| 22> H        1.240812    0.922165   -2.406446 
| 23> H        1.240675   -0.918028   -2.407739 
| 24> *
| 25> 
| 26> %maxcore 5000
| 27> 
| 28> %pal
| 29> nprocs = 24
| 30> end
| 31> 
| 32> 
| 33>                          ****END OF INPUT****
================================================================================

                       ****************************
                       * Single Point Calculation *
                       ****************************

---------------------------------
CARTESIAN COORDINATES (ANGSTROEM)
---------------------------------
  Cr    -0.000015    0.000077   -0.030936
  O     -3.048010    0.000059    0.176284
  C     -1.899390    0.000055    0.076972
  C      0.001618   -0.001981    1.838499
  O      0.002800   -0.003409    2.993522
  C      1.899510    0.000027    0.074271
  O      3.048267   -0.000019    0.172029
  C     -0.000196    1.904845   -0.051611
  O     -0.000396    3.057825   -0.041163
  C     -0.000244   -1.904616   -0.055186
  O     -0.000506   -3.057616   -0.046760
  C     -0.692601    0.002127   -2.246320
  H     -1.244106   -0.917771   -2.406195
  H     -1.243862    0.922423   -2.404834
  C      0.689570    0.001986   -2.247230
  H      1.240812    0.922165   -2.406446
  H      1.240675   -0.918028   -2.407739

----------------------------
CARTESIAN COORDINATES (A.U.)
----------------------------
  NO LB      ZA    FRAG     MASS         X           Y           Z
   0 Cr   24.0000    0    52.000   -0.000028    0.000146   -0.058461
   1 O     8.0000    0    15.999   -5.759904    0.000111    0.333128
   2 C     6.0000    0    12.011   -3.589327    0.000104    0.145456
   3 C     6.0000    0    12.011    0.003058   -0.003744    3.474260
   4 O     8.0000    0    15.999    0.005291   -0.006442    5.656937
   5 C     6.0000    0    12.011    3.589554    0.000051    0.140352
   6 O     8.0000    0    15.999    5.760390   -0.000036    0.325088
   7 C     6.0000    0    12.011   -0.000370    3.599635   -0.097531
   8 O     8.0000    0    15.999   -0.000748    5.778452   -0.077787
   9 C     6.0000    0    12.011   -0.000461   -3.599203   -0.104286
  10 O     8.0000    0    15.999   -0.000956   -5.778057   -0.088364
  11 C     6.0000    0    12.011   -1.308826    0.004019   -4.244930
  12 H     1.0000    0     1.008   -2.351020   -1.734336   -4.547050
  13 H     1.0000    0     1.008   -2.350559    1.743127   -4.544478
  14 C     6.0000    0    12.011    1.303098    0.003753   -4.246649
  15 H     1.0000    0     1.008    2.344795    1.742639   -4.547524
  16 H     1.0000    0     1.008    2.344536   -1.734822   -4.549967

--------------------------------
INTERNAL COORDINATES (ANGSTROEM)
--------------------------------
 Cr     0   0   0     0.000000000000     0.00000000     0.00000000
 O      1   0   0     3.055030875253     0.00000000     0.00000000
 C      2   1   0     1.152905363748     1.05231170     0.00000000
 C      1   2   3     1.869436846026    86.16074383   180.09239677
 O      4   1   2     1.155024487549   179.98842661   137.88507603
 C      1   2   3     1.902436264629   172.94054995   180.04418130
 O      6   1   4     1.152909048333   178.30605126   359.96332525
 C      1   2   3     1.904880212037    90.03708688    89.40838194
 O      8   1   2     1.153027354881   178.85892270    85.88519596
 C      1   2   3     1.904847379501    90.04226574   270.75742385
 O     10   1   2     1.153030817507   178.85184584   274.19504469
 C      1   2   3     2.321121676550    76.52872678     0.08131834
 H     12   1   2     1.084403112802   106.96083706   297.49596825
 H     12   1   2     1.084416942847   106.97461437    62.51637637
 C     12   1   2     1.382171306757    72.67713796   180.00280841
 H     15  12   1     1.084410839701   120.55353131   260.15481243
 H     15  12   1     1.084391820470   120.55728906    99.82389988

---------------------------
INTERNAL COORDINATES (A.U.)
---------------------------
 Cr     0   0   0     0.000000000000     0.00000000     0.00000000
 O      1   0   0     5.773171684902     0.00000000     0.00000000
 C      2   1   0     2.178675395813     1.05231170     0.00000000
 C      1   2   3     3.532723663650    86.16074383   180.09239677
 O      4   1   2     2.182679959440   179.98842661   137.88507603
 C      1   2   3     3.595083527388   172.94054995   180.04418130
 O      6   1   4     2.178682358670   178.30605126   359.96332525
 C      1   2   3     3.599701918676    90.03708688    89.40838194
 O      8   1   2     2.178905925645   178.85892270    85.88519596
 C      1   2   3     3.599639874174    90.04226574   270.75742385
 O     10   1   2     2.178912469059   178.85184584   274.19504469
 C      1   2   3     4.386284292188    76.52872678     0.08131834
 H     12   1   2     2.049224901967   106.96083706   297.49596825
 H     12   1   2     2.049251036964   106.97461437    62.51637637
 C     12   1   2     2.611925239935    72.67713796   180.00280841
 H     15  12   1     2.049239503690   120.55353131   260.15481243
 H     15  12   1     2.049203562552   120.55728906    99.82389988

---------------------
BASIS SET INFORMATION
---------------------
There are 4 groups of distinct atoms

 Group   1 Type Cr  : 17s13p7d2f1g contracted to 6s6p4d2f1g pattern {842111/631111/4111/11/1}
 Group   2 Type O   : 12s7p3d1f contracted to 6s4p3d1f pattern {621111/4111/111/1}
 Group   3 Type C   : 12s6p3d1f contracted to 6s3p3d1f pattern {621111/411/111/1}
 Group   4 Type H   : 5s3p1d contracted to 3s3p1d pattern {311/111/1}

Atom   0Cr   basis set group =>   1
Atom   1O    basis set group =>   2
Atom   2C    basis set group =>   3
Atom   3C    basis set group =>   3
Atom   4O    basis set group =>   2
Atom   5C    basis set group =>   3
Atom   6O    basis set group =>   2
Atom   7C    basis set group =>   3
Atom   8O    basis set group =>   2
Atom   9C    basis set group =>   3
Atom  10O    basis set group =>   2
Atom  11C    basis set group =>   3
Atom  12H    basis set group =>   4
Atom  13H    basis set group =>   4
Atom  14C    basis set group =>   3
Atom  15H    basis set group =>   4
Atom  16H    basis set group =>   4
----------------------------------
AUXILIARY/JK BASIS SET INFORMATION
----------------------------------
There are 4 groups of distinct atoms

 Group   1 Type Cr  : 19s14p12d10f7g3h1i contracted to 16s13p11d9f5g3h1i pattern {4111111111111111/2111111111111/21111111111/211111111/31111/111/1}
 Group   2 Type O   : 14s10p6d2f1g contracted to 10s8p4d2f1g pattern {5111111111/31111111/3111/11/1}
 Group   3 Type C   : 14s10p6d2f1g contracted to 10s8p5d1f1g pattern {5111111111/31111111/21111/2/1}
 Group   4 Type H   : 4s2p2d contracted to 2s2p2d pattern {31/11/11}

Atom   0Cr   basis set group =>   1
Atom   1O    basis set group =>   2
Atom   2C    basis set group =>   3
Atom   3C    basis set group =>   3
Atom   4O    basis set group =>   2
Atom   5C    basis set group =>   3
Atom   6O    basis set group =>   2
Atom   7C    basis set group =>   3
Atom   8O    basis set group =>   2
Atom   9C    basis set group =>   3
Atom  10O    basis set group =>   2
Atom  11C    basis set group =>   3
Atom  12H    basis set group =>   4
Atom  13H    basis set group =>   4
Atom  14C    basis set group =>   3
Atom  15H    basis set group =>   4
Atom  16H    basis set group =>   4


           ************************************************************
           *        Program running with 24 parallel MPI-processes    *
           *              working on a common directory               *
           ************************************************************
------------------------------------------------------------------------------
                           ORCA GTO INTEGRAL CALCULATION
------------------------------------------------------------------------------

                         BASIS SET STATISTICS AND STARTUP INFO

 # of primitive gaussian shells          ...  345
 # of primitive gaussian functions       ...  829
 # of contracted shells                  ...  208
 # of contracted basis functions         ...  594
 Highest angular momentum                ...    4
 Maximum contraction depth               ...    8
 Integral package used                   ... LIBINT
 Integral threshhold            Thresh   ...  1.000e-10
 Primitive cut-off              TCut     ...  1.000e-11


------------------------------ INTEGRAL EVALUATION ----------------------------


 * One electron integrals 
 Pre-screening matrix                    ... done
 Shell pair data                         ... done (   0.005 sec)



           ************************************************************
           *        Program running with 24 parallel MPI-processes    *
           *              working on a common directory               *
           ************************************************************
-------------------------------------------------------------------------------
                                 ORCA SCF
-------------------------------------------------------------------------------

------------
SCF SETTINGS
------------
Hamiltonian:
 Density Functional     Method          .... DFT(GTOs)
 Exchange Functional    Exchange        .... WB97M-V
 Correlation Functional Correlation     .... WB97M-V
 Gradients option       PostSCFGGA      .... off
 Hybrid DFT is turned on
   Fraction HF Exchange ScalHFX         ....  0.150000
   Scaling of DF-GGA-X  ScalDFX         ....  0.000000
   Scaling of DF-GGA-C  ScalDFC         ....  1.000000
   Scaling of DF-LDA-C  ScalLDAC        ....  1.000000
   Perturbative correction              ....  0.000000
   Density functional embedding theory  .... OFF
 Long-range corrected/Screened/Range-Separated Hybrid DFT is turned on
   Amount of maximum screened exact exchange              ....  0.850000
   Range separation parameter mu (erf(mu*r12)/r12)        ....  0.300000
   NL short-range parameter             ....  6.000000
   NL long-range parameter              ....  0.010000


General Settings:
 Integral files         IntName         .... MOR30_pr12
 Hartree-Fock type      HFTyp           .... RHF
 Total Charge           Charge          ....    0
 Multiplicity           Mult            ....    1
 Number of Electrons    NEL             ....  110
 Basis Dimension        Dim             ....  594
 Nuclear Repulsion      ENuc            ....   1031.0713484369 Eh

Convergence Acceleration:
 DIIS                   CNVDIIS         .... on
   Start iteration      DIISMaxIt       ....    12
   Startup error        DIISStart       ....  0.200000
   # of expansion vecs  DIISMaxEq       ....     5
   Bias factor          DIISBfac        ....   1.050
   Max. coefficient     DIISMaxC        ....  10.000
 Newton-Raphson         CNVNR           .... off
 SOSCF                  CNVSOSCF        .... off
 Level Shifting         CNVShift        .... on
   Level shift para.    LevelShift      ....    0.2500
   Turn off err/grad.   ShiftErr        ....    0.0010
 Zerner damping         CNVZerner       .... off
 Static damping         CNVDamp         .... on
   Fraction old density DampFac         ....    0.7000
   Max. Damping (<1)    DampMax         ....    0.9800
   Min. Damping (>=0)   DampMin         ....    0.0000
   Turn off err/grad.   DampErr         ....    0.1000
 Fernandez-Rico         CNVRico         .... off

SCF Procedure:
 Maximum # iterations   MaxIter         ....   125
 SCF integral mode      SCFMode         .... Direct
   Integral package                     .... LIBINT
 Reset frequency        DirectResetFreq ....    20
 Integral Threshold     Thresh          ....  1.000e-10 Eh
 Primitive CutOff       TCut            ....  1.000e-11 Eh

Convergence Tolerance:
 Convergence Check Mode ConvCheckMode   .... Total+1el-Energy
 Convergence forced     ConvForced      .... 0
 Energy Change          TolE            ....  1.000e-06 Eh
 1-El. energy change                    ....  1.000e-03 Eh
 DIIS Error             TolErr          ....  1.000e-06


Diagonalization of the overlap matrix:
Smallest eigenvalue                        ... 3.583e-06
Time for diagonalization                   ...    0.056 sec
Threshold for overlap eigenvalues          ... 1.000e-08
Number of eigenvalues below threshold      ... 0
Time for construction of square roots      ...    0.056 sec
Total time needed                          ...    0.115 sec

-------------------
DFT GRID GENERATION
-------------------

General Integration Accuracy     IntAcc      ...  4.670
Radial Grid Type                 RadialGrid  ... Gauss-Chebyshev
Angular Grid (max. acc.)         AngularGrid ... Lebedev-302
Angular grid pruning method      GridPruning ... 3 (G Style)
Weight generation scheme         WeightScheme... Becke
Basis function cutoff            BFCut       ...    1.0000e-10
Integration weight cutoff        WCut        ...    1.0000e-14
Grids for H and He will be reduced by one unit

# of grid points (after initial pruning)     ...  97784 (   0.0 sec)
# of grid points (after weights+screening)   ...  89263 (   0.0 sec)
nearest neighbour list constructed           ...    0.0 sec
Grid point re-assignment to atoms done       ...    0.0 sec
Grid point division into batches done        ...    0.4 sec
Reduced shell lists constructed in    0.5 sec

Total number of grid points                  ...    89263
Total number of batches                      ...     1406
Average number of points per batch           ...       63
Average number of grid points per atom       ...     5251
Average number of shells per batch           ...   159.33 (76.60%)
Average number of basis functions per batch  ...   475.20 (80.00%)
Average number of large shells per batch     ...   135.00 (84.73%)
Average number of large basis fcns per batch ...   400.60 (84.30%)
Maximum spatial batch extension              ...   1.93,  1.38,  1.44 au
Average spatial batch extension              ...   0.05,  0.04,  0.04 au

Time for grid setup =    0.593 sec

------------------------------
INITIAL GUESS: MODEL POTENTIAL
------------------------------
Loading Hartree-Fock densities                     ... done
Calculating cut-offs                               ... done
Setting up the integral package                    ... done
Initializing the effective Hamiltonian             ... done
Starting the Coulomb interaction                   ... done (   0.0 sec)
Reading the grid                                   ... done
Mapping shells                                     ... done
Starting the XC term evaluation                    ... done (   0.2 sec)
  promolecular density results
     # of electrons  =    109.997896004
     EX              =   -124.863021585
     EC              =     -3.899130025
     EX+EC           =   -128.762151610
Transforming the Hamiltonian                       ... done (   0.0 sec)
Diagonalizing the Hamiltonian                      ... done (   0.1 sec)
Back transforming the eigenvectors                 ... done (   0.0 sec)
Now organizing SCF variables                       ... done
                      ------------------
                      INITIAL GUESS DONE (   1.0 sec)
                      ------------------
--------------
SCF ITERATIONS
--------------
ITER       Energy         Delta-E        Max-DP      RMS-DP      [F,P]     Damp
               ***  Starting incremental Fock matrix formation  ***
  0  -1690.0097396338   0.000000000000 0.27847812  0.00134778  0.1666106 0.7000
  1  -1690.1119163810  -0.102176747295 0.19711654  0.00102419  0.0961770 0.7000
                               ***Turning on DIIS***
  2  -1690.1603888862  -0.048472505161 0.40068982  0.00227958  0.0492261 0.0000
  3  -1690.2503430365  -0.089954150301 0.04385454  0.00036930  0.0357245 0.0000
  4  -1690.2602492591  -0.009906222604 0.04476921  0.00021563  0.0219984 0.0000
  5  -1690.2615290651  -0.001279806013 0.03439887  0.00011933  0.0253679 0.0000
  6  -1690.2624895005  -0.000960435328 0.01226675  0.00006848  0.0049072 0.0000
  7  -1690.2627317521  -0.000242251683 0.00705876  0.00004288  0.0063100 0.0000
  8  -1690.2628427063  -0.000110954139 0.00736584  0.00003690  0.0024421 0.0000
  9  -1690.2628772050  -0.000034498758 0.00691127  0.00003114  0.0009488 0.0000
 10  -1690.2628838656  -0.000006660542 0.00073943  0.00000789  0.0009538 0.0000
 11  -1690.2628868513  -0.000002985743 0.00338682  0.00001453  0.0002180 0.0000
 12  -1690.2628870499  -0.000000198554 0.00131715  0.00001465  0.0000694 0.0000
 13  -1690.2628870921  -0.000000042209 0.00241785  0.00001245  0.0001147 0.0000
 14  -1690.2628870999  -0.000000007854 0.00590707  0.00002217  0.0000654 0.0000
                 **** Energy Check signals convergence ****

               *****************************************************
               *                     SUCCESS                       *
               *           SCF CONVERGED AFTER  15 CYCLES          *
               *****************************************************


Setting up the DFT-NL grid :

General Integration Accuracy     IntAcc      ...  4.340
Radial Grid Type                 RadialGrid  ... Gauss-Chebyshev
Angular Grid (max. acc.)         AngularGrid ... Lebedev-110
Angular grid pruning method      GridPruning ... 3 (G Style)
Weight generation scheme         WeightScheme... Becke
Basis function cutoff            BFCut       ...    1.0000e-10
Integration weight cutoff        WCut        ...    1.0000e-14
Grids for H and He will be reduced by one unit

# of grid points (after initial pruning)     ...  26320 (   0.0 sec)
# of grid points (after weights+screening)   ...  24352 (   0.0 sec)
nearest neighbour list constructed           ...    0.0 sec
Grid point re-assignment to atoms done       ...    0.0 sec
Grid point division into batches done        ...    0.0 sec
Reduced shell lists constructed in    0.1 sec

Total number of grid points                  ...    24352
Total number of batches                      ...      390
Average number of points per batch           ...       62
Average number of grid points per atom       ...     1432
Average number of shells per batch           ...   158.00 (75.96%)
Average number of basis functions per batch  ...   471.44 (79.37%)
Average number of large shells per batch     ...   134.94 (85.41%)
Average number of large basis fcns per batch ...   396.72 (84.15%)
Maximum spatial batch extension              ...   2.14,  2.09,  1.82 au
Average spatial batch extension              ...   0.08,  0.07,  0.07 au

Final grid set up in    0.1 sec

-------------------------------------------------------------------------------
                         DFT-NL dispersion correction                          
-------------------------------------------------------------------------------

SC Energy -1690.262887153 
NL    Energy 0.427386002 
SC+NL Energy -1689.835501151 
NL done in    0.2 sec
-------------------------------------------------------------------------------

----------------
TOTAL SCF ENERGY
----------------

Total Energy       :        -1689.83550115 Eh          -45982.76170 eV

Components:
Nuclear Repulsion  :         1031.07134844 Eh           28056.87778 eV
Electronic Energy  :        -2720.90684959 Eh          -74039.63948 eV
One Electron Energy:        -4367.45180710 Eh         -118844.40560 eV
Two Electron Energy:         1646.54495751 Eh           44804.76612 eV

Virial components:
Potential Energy   :        -3376.13573721 Eh          -91869.32396 eV
Kinetic Energy     :         1686.30023606 Eh           45886.56225 eV
Virial Ratio       :            2.00209646


DFT components:
N(Alpha)           :       54.999967744884 electrons
N(Beta)            :       54.999967744884 electrons
N(Total)           :      109.999935489767 electrons
E(X)               :      -93.021432520638 Eh       
E(C)               :       -4.199798797991 Eh       
NL Energy, E(C,NL) :        0.427386002096 Eh       
E(XC)              :      -96.793845316534 Eh       
DFET-embed. en.    :        0.000000000000 Eh       

---------------
SCF CONVERGENCE
---------------

  Last Energy change         ...   -5.3024e-08  Tolerance :   1.0000e-06
  Last MAX-Density change    ...    1.1241e-03  Tolerance :   1.0000e-05
  Last RMS-Density change    ...    8.6436e-06  Tolerance :   1.0000e-06
  Last DIIS Error            ...    1.4791e-05  Tolerance :   1.0000e-06

             **** THE GBW FILE WAS UPDATED (MOR30_pr12.gbw) ****
             **** DENSITY FILE WAS UPDATED (MOR30_pr12.scfp) ****
             **** ENERGY FILE WAS UPDATED (MOR30_pr12.en.tmp) ****
             **** THE GBW FILE WAS UPDATED (MOR30_pr12.gbw) ****
             **** DENSITY FILE WAS UPDATED (MOR30_pr12.scfp) ****
----------------
ORBITAL ENERGIES
----------------

  NO   OCC          E(Eh)            E(eV) 
   0   2.0000    -216.216437     -5883.5484 
   1   2.0000     -24.966004      -679.3595 
   2   2.0000     -21.175920      -576.2261 
   3   2.0000     -21.174115      -576.1770 
   4   2.0000     -21.173355      -576.1563 
   5   2.0000     -19.426921      -528.6334 
   6   2.0000     -19.426917      -528.6333 
   7   2.0000     -19.423135      -528.5304 
   8   2.0000     -19.423134      -528.5304 
   9   2.0000     -19.413568      -528.2700 
  10   2.0000     -10.479922      -285.1732 
  11   2.0000     -10.479921      -285.1731 
  12   2.0000     -10.478047      -285.1222 
  13   2.0000     -10.478044      -285.1221 
  14   2.0000     -10.472388      -284.9682 
  15   2.0000     -10.389819      -282.7214 
  16   2.0000     -10.389256      -282.7060 
  17   2.0000      -3.026610       -82.3583 
  18   2.0000      -1.957478       -53.2657 
  19   2.0000      -1.953309       -53.1523 
  20   2.0000      -1.952714       -53.1360 
  21   2.0000      -1.275936       -34.7200 
  22   2.0000      -1.275711       -34.7139 
  23   2.0000      -1.273428       -34.6517 
  24   2.0000      -1.273408       -34.6512 
  25   2.0000      -1.263466       -34.3807 
  26   2.0000      -0.925061       -25.1722 
  27   2.0000      -0.743017       -20.2185 
  28   2.0000      -0.731683       -19.9101 
  29   2.0000      -0.694615       -18.9014 
  30   2.0000      -0.689215       -18.7545 
  31   2.0000      -0.688645       -18.7390 
  32   2.0000      -0.682657       -18.5760 
  33   2.0000      -0.622269       -16.9328 
  34   2.0000      -0.615213       -16.7408 
  35   2.0000      -0.597653       -16.2630 
  36   2.0000      -0.593356       -16.1460 
  37   2.0000      -0.591953       -16.1078 
  38   2.0000      -0.591200       -16.0874 
  39   2.0000      -0.580898       -15.8070 
  40   2.0000      -0.575798       -15.6683 
  41   2.0000      -0.573909       -15.6169 
  42   2.0000      -0.565295       -15.3825 
  43   2.0000      -0.562296       -15.3009 
  44   2.0000      -0.561608       -15.2821 
  45   2.0000      -0.560113       -15.2415 
  46   2.0000      -0.547951       -14.9105 
  47   2.0000      -0.528812       -14.3897 
  48   2.0000      -0.517939       -14.0938 
  49   2.0000      -0.515490       -14.0272 
  50   2.0000      -0.494091       -13.4449 
  51   2.0000      -0.423993       -11.5374 
  52   2.0000      -0.334161        -9.0930 
  53   2.0000      -0.333201        -9.0669 
  54   2.0000      -0.327243        -8.9047 
  55   0.0000       0.013171         0.3584 
  56   0.0000       0.022718         0.6182 
  57   0.0000       0.023346         0.6353 
  58   0.0000       0.026107         0.7104 
  59   0.0000       0.032293         0.8787 
  60   0.0000       0.032954         0.8967 
  61   0.0000       0.039932         1.0866 
  62   0.0000       0.046715         1.2712 
  63   0.0000       0.052357         1.4247 
  64   0.0000       0.059129         1.6090 
  65   0.0000       0.064130         1.7451 
  66   0.0000       0.068893         1.8747 
  67   0.0000       0.069615         1.8943 
  68   0.0000       0.069877         1.9014 
  69   0.0000       0.082040         2.2324 
  70   0.0000       0.082543         2.2461 
  71   0.0000       0.088095         2.3972 
  72   0.0000       0.089605         2.4383 
  73   0.0000       0.091651         2.4940 
  74   0.0000       0.093372         2.5408 
  75   0.0000       0.098361         2.6766 
  76   0.0000       0.104072         2.8319 
  77   0.0000       0.106830         2.9070 
  78   0.0000       0.110617         3.0100 
  79   0.0000       0.113637         3.0922 
  80   0.0000       0.115358         3.1390 
  81   0.0000       0.121891         3.3168 
  82   0.0000       0.122390         3.3304 
  83   0.0000       0.128033         3.4840 
  84   0.0000       0.137536         3.7425 
  85   0.0000       0.139534         3.7969 
  86   0.0000       0.139548         3.7973 
  87   0.0000       0.148995         4.0544 
  88   0.0000       0.153003         4.1634 
  89   0.0000       0.156243         4.2516 
  90   0.0000       0.159328         4.3355 
  91   0.0000       0.160500         4.3674 
  92   0.0000       0.163423         4.4470 
  93   0.0000       0.175015         4.7624 
  94   0.0000       0.176889         4.8134 
  95   0.0000       0.183765         5.0005 
  96   0.0000       0.189190         5.1481 
  97   0.0000       0.194844         5.3020 
  98   0.0000       0.202830         5.5193 
  99   0.0000       0.220173         5.9912 
 100   0.0000       0.233221         6.3463 
 101   0.0000       0.242180         6.5901 
 102   0.0000       0.247020         6.7218 
 103   0.0000       0.248351         6.7580 
 104   0.0000       0.251282         6.8377 
 105   0.0000       0.255015         6.9393 
 106   0.0000       0.261358         7.1119 
 107   0.0000       0.265331         7.2200 
 108   0.0000       0.278386         7.5753 
 109   0.0000       0.282917         7.6986 
 110   0.0000       0.285848         7.7783 
 111   0.0000       0.288678         7.8553 
 112   0.0000       0.300908         8.1881 
 113   0.0000       0.308218         8.3870 
 114   0.0000       0.315999         8.5988 
 115   0.0000       0.321404         8.7459 
 116   0.0000       0.322931         8.7874 
 117   0.0000       0.324909         8.8412 
 118   0.0000       0.329220         8.9585 
 119   0.0000       0.330782         9.0010 
 120   0.0000       0.335482         9.1289 
 121   0.0000       0.346675         9.4335 
 122   0.0000       0.349311         9.5052 
 123   0.0000       0.353589         9.6216 
 124   0.0000       0.353711         9.6250 
 125   0.0000       0.367918        10.0115 
 126   0.0000       0.380621        10.3572 
 127   0.0000       0.381986        10.3944 
 128   0.0000       0.389138        10.5890 
 129   0.0000       0.391003        10.6397 
 130   0.0000       0.392140        10.6707 
 131   0.0000       0.400417        10.8959 
 132   0.0000       0.404176        10.9982 
 133   0.0000       0.407908        11.0997 
 134   0.0000       0.412685        11.2297 
 135   0.0000       0.418385        11.3848 
 136   0.0000       0.420841        11.4517 
 137   0.0000       0.427472        11.6321 
 138   0.0000       0.428735        11.6665 
 139   0.0000       0.431165        11.7326 
 140   0.0000       0.445231        12.1154 
 141   0.0000       0.450830        12.2677 
 142   0.0000       0.451602        12.2887 
 143   0.0000       0.456269        12.4157 
 144   0.0000       0.459708        12.5093 
 145   0.0000       0.459947        12.5158 
 146   0.0000       0.464547        12.6410 
 147   0.0000       0.477744        13.0001 
 148   0.0000       0.478803        13.0289 
 149   0.0000       0.483686        13.1618 
 150   0.0000       0.487515        13.2659 
 151   0.0000       0.493499        13.4288 
 152   0.0000       0.503978        13.7139 
 153   0.0000       0.505618        13.7586 
 154   0.0000       0.512606        13.9487 
 155   0.0000       0.515905        14.0385 
 156   0.0000       0.542275        14.7561 
 157   0.0000       0.554337        15.0843 
 158   0.0000       0.557149        15.1608 
 159   0.0000       0.558815        15.2061 
 160   0.0000       0.563629        15.3371 
 161   0.0000       0.577455        15.7134 
 162   0.0000       0.580370        15.7927 
 163   0.0000       0.581793        15.8314 
 164   0.0000       0.583695        15.8831 
 165   0.0000       0.591146        16.0859 
 166   0.0000       0.596293        16.2260 
 167   0.0000       0.603667        16.4266 
 168   0.0000       0.606243        16.4967 
 169   0.0000       0.609394        16.5825 
 170   0.0000       0.612604        16.6698 
 171   0.0000       0.616301        16.7704 
 172   0.0000       0.625361        17.0169 
 173   0.0000       0.634322        17.2608 
 174   0.0000       0.644738        17.5442 
 175   0.0000       0.648294        17.6410 
 176   0.0000       0.649844        17.6832 
 177   0.0000       0.657625        17.8949 
 178   0.0000       0.659861        17.9557 
 179   0.0000       0.660421        17.9710 
 180   0.0000       0.677216        18.4280 
 181   0.0000       0.680818        18.5260 
 182   0.0000       0.682353        18.5678 
 183   0.0000       0.689151        18.7527 
 184   0.0000       0.689318        18.7573 
 185   0.0000       0.694053        18.8861 
 186   0.0000       0.705116        19.1872 
 187   0.0000       0.710782        19.3414 
 188   0.0000       0.711452        19.3596 
 189   0.0000       0.717760        19.5312 
 190   0.0000       0.720734        19.6122 
 191   0.0000       0.722560        19.6619 
 192   0.0000       0.728505        19.8236 
 193   0.0000       0.747989        20.3538 
 194   0.0000       0.757224        20.6051 
 195   0.0000       0.757497        20.6125 
 196   0.0000       0.758346        20.6357 
 197   0.0000       0.766744        20.8642 
 198   0.0000       0.768694        20.9172 
 199   0.0000       0.773713        21.0538 
 200   0.0000       0.778508        21.1843 
 201   0.0000       0.789033        21.4707 
 202   0.0000       0.790446        21.5091 
 203   0.0000       0.791308        21.5326 
 204   0.0000       0.792681        21.5699 
 205   0.0000       0.797126        21.6909 
 206   0.0000       0.806169        21.9370 
 207   0.0000       0.807272        21.9670 
 208   0.0000       0.814403        22.1610 
 209   0.0000       0.821037        22.3416 
 210   0.0000       0.822549        22.3827 
 211   0.0000       0.835484        22.7347 
 212   0.0000       0.843319        22.9479 
 213   0.0000       0.846742        23.0410 
 214   0.0000       0.854553        23.2536 
 215   0.0000       0.854997        23.2657 
 216   0.0000       0.875503        23.8236 
 217   0.0000       0.884218        24.0608 
 218   0.0000       0.888551        24.1787 
 219   0.0000       0.891346        24.2547 
 220   0.0000       0.905069        24.6282 
 221   0.0000       0.913071        24.8459 
 222   0.0000       0.914757        24.8918 
 223   0.0000       0.921494        25.0751 
 224   0.0000       0.925994        25.1976 
 225   0.0000       0.946598        25.7583 
 226   0.0000       0.953961        25.9586 
 227   0.0000       0.961846        26.1732 
 228   0.0000       0.964198        26.2372 
 229   0.0000       0.964778        26.2529 
 230   0.0000       0.968758        26.3612 
 231   0.0000       0.973653        26.4944 
 232   0.0000       0.979655        26.6578 
 233   0.0000       0.993362        27.0308 
 234   0.0000       0.997104        27.1326 
 235   0.0000       1.001926        27.2638 
 236   0.0000       1.011073        27.5127 
 237   0.0000       1.017593        27.6901 
 238   0.0000       1.024570        27.8800 
 239   0.0000       1.041544        28.3418 
 240   0.0000       1.042403        28.3652 
 241   0.0000       1.067455        29.0469 
 242   0.0000       1.071375        29.1536 
 243   0.0000       1.073445        29.2099 
 244   0.0000       1.075161        29.2566 
 245   0.0000       1.088597        29.6222 
 246   0.0000       1.091199        29.6930 
 247   0.0000       1.097448        29.8631 
 248   0.0000       1.115253        30.3476 
 249   0.0000       1.115854        30.3639 
 250   0.0000       1.146826        31.2067 
 251   0.0000       1.150055        31.2946 
 252   0.0000       1.162980        31.6463 
 253   0.0000       1.168150        31.7870 
 254   0.0000       1.173615        31.9357 
 255   0.0000       1.189867        32.3779 
 256   0.0000       1.224854        33.3300 
 257   0.0000       1.234971        33.6053 
 258   0.0000       1.256184        34.1825 
 259   0.0000       1.267973        34.5033 
 260   0.0000       1.292134        35.1607 
 261   0.0000       1.304435        35.4955 
 262   0.0000       1.310770        35.6679 
 263   0.0000       1.313737        35.7486 
 264   0.0000       1.327637        36.1268 
 265   0.0000       1.333125        36.2762 
 266   0.0000       1.340611        36.4799 
 267   0.0000       1.379787        37.5459 
 268   0.0000       1.393820        37.9278 
 269   0.0000       1.399192        38.0740 
 270   0.0000       1.400379        38.1063 
 271   0.0000       1.411267        38.4025 
 272   0.0000       1.414893        38.5012 
 273   0.0000       1.421553        38.6824 
 274   0.0000       1.422053        38.6960 
 275   0.0000       1.423592        38.7379 
 276   0.0000       1.459997        39.7285 
 277   0.0000       1.461134        39.7595 
 278   0.0000       1.464911        39.8623 
 279   0.0000       1.473146        40.0863 
 280   0.0000       1.477618        40.2080 
 281   0.0000       1.506623        40.9973 
 282   0.0000       1.512481        41.1567 
 283   0.0000       1.522875        41.4395 
 284   0.0000       1.561388        42.4875 
 285   0.0000       1.564948        42.5844 
 286   0.0000       1.625600        44.2348 
 287   0.0000       1.650231        44.9051 
 288   0.0000       1.697547        46.1926 
 289   0.0000       1.709825        46.5267 
 290   0.0000       1.732828        47.1526 
 291   0.0000       1.742211        47.4080 
 292   0.0000       1.755519        47.7701 
 293   0.0000       1.762788        47.9679 
 294   0.0000       1.765299        48.0362 
 295   0.0000       1.769468        48.1497 
 296   0.0000       1.801250        49.0145 
 297   0.0000       1.801790        49.0292 
 298   0.0000       1.811375        49.2900 
 299   0.0000       1.830139        49.8006 
 300   0.0000       1.838681        50.0331 
 301   0.0000       1.855616        50.4939 
 302   0.0000       1.861560        50.6556 
 303   0.0000       1.865284        50.7570 
 304   0.0000       1.874326        51.0030 
 305   0.0000       1.877290        51.0837 
 306   0.0000       1.881319        51.1933 
 307   0.0000       1.900399        51.7125 
 308   0.0000       1.902094        51.7586 
 309   0.0000       1.910426        51.9853 
 310   0.0000       1.914354        52.0922 
 311   0.0000       1.922717        52.3198 
 312   0.0000       1.924478        52.3677 
 313   0.0000       1.946006        52.9535 
 314   0.0000       1.955535        53.2128 
 315   0.0000       1.959744        53.3274 
 316   0.0000       1.980410        53.8897 
 317   0.0000       1.984044        53.9886 
 318   0.0000       2.005135        54.5625 
 319   0.0000       2.007644        54.6308 
 320   0.0000       2.019629        54.9569 
 321   0.0000       2.056483        55.9597 
 322   0.0000       2.067990        56.2729 
 323   0.0000       2.079568        56.5879 
 324   0.0000       2.084298        56.7166 
 325   0.0000       2.092332        56.9352 
 326   0.0000       2.098008        57.0897 
 327   0.0000       2.116803        57.6011 
 328   0.0000       2.119634        57.6782 
 329   0.0000       2.122101        57.7453 
 330   0.0000       2.156347        58.6772 
 331   0.0000       2.188476        59.5515 
 332   0.0000       2.188807        59.5605 
 333   0.0000       2.222552        60.4787 
 334   0.0000       2.253499        61.3208 
 335   0.0000       2.287310        62.2409 
 336   0.0000       2.300668        62.6044 
 337   0.0000       2.311763        62.9063 
 338   0.0000       2.322654        63.2026 
 339   0.0000       2.331557        63.4449 
 340   0.0000       2.336429        63.5775 
 341   0.0000       2.369604        64.4802 
 342   0.0000       2.408740        65.5451 
 343   0.0000       2.417245        65.7766 
 344   0.0000       2.445531        66.5463 
 345   0.0000       2.448456        66.6259 
 346   0.0000       2.451837        66.7179 
 347   0.0000       2.468281        67.1653 
 348   0.0000       2.469661        67.2029 
 349   0.0000       2.481021        67.5120 
 350   0.0000       2.488395        67.7127 
 351   0.0000       2.490674        67.7747 
 352   0.0000       2.495760        67.9131 
 353   0.0000       2.508508        68.2600 
 354   0.0000       2.538293        69.0705 
 355   0.0000       2.589307        70.4586 
 356   0.0000       2.636619        71.7461 
 357   0.0000       2.703369        73.5624 
 358   0.0000       2.703721        73.5720 
 359   0.0000       2.735302        74.4313 
 360   0.0000       2.754646        74.9577 
 361   0.0000       2.770027        75.3763 
 362   0.0000       2.773175        75.4619 
 363   0.0000       2.774710        75.5037 
 364   0.0000       2.785339        75.7929 
 365   0.0000       2.788753        75.8858 
 366   0.0000       2.816452        76.6396 
 367   0.0000       2.829892        77.0053 
 368   0.0000       2.834263        77.1242 
 369   0.0000       2.854747        77.6816 
 370   0.0000       2.863627        77.9232 
 371   0.0000       2.863674        77.9245 
 372   0.0000       2.866679        78.0063 
 373   0.0000       2.877031        78.2880 
 374   0.0000       2.906185        79.0813 
 375   0.0000       2.908123        79.1340 
 376   0.0000       2.909965        79.1842 
 377   0.0000       2.933097        79.8136 
 378   0.0000       2.935428        79.8770 
 379   0.0000       2.962672        80.6184 
 380   0.0000       2.964605        80.6710 
 381   0.0000       2.998626        81.5968 
 382   0.0000       3.017798        82.1184 
 383   0.0000       3.022966        82.2591 
 384   0.0000       3.039931        82.7207 
 385   0.0000       3.042429        82.7887 
 386   0.0000       3.064163        83.3801 
 387   0.0000       3.091562        84.1257 
 388   0.0000       3.095605        84.2357 
 389   0.0000       3.108716        84.5925 
 390   0.0000       3.120557        84.9147 
 391   0.0000       3.133641        85.2707 
 392   0.0000       3.143528        85.5397 
 393   0.0000       3.159365        85.9707 
 394   0.0000       3.165637        86.1414 
 395   0.0000       3.165753        86.1445 
 396   0.0000       3.177227        86.4567 
 397   0.0000       3.183359        86.6236 
 398   0.0000       3.191047        86.8328 
 399   0.0000       3.198213        87.0278 
 400   0.0000       3.202583        87.1467 
 401   0.0000       3.204574        87.2009 
 402   0.0000       3.231305        87.9283 
 403   0.0000       3.246659        88.3461 
 404   0.0000       3.250046        88.4382 
 405   0.0000       3.270252        88.9881 
 406   0.0000       3.284486        89.3754 
 407   0.0000       3.297173        89.7206 
 408   0.0000       3.314312        90.1870 
 409   0.0000       3.319865        90.3381 
 410   0.0000       3.321459        90.3815 
 411   0.0000       3.330475        90.6268 
 412   0.0000       3.331315        90.6497 
 413   0.0000       3.350015        91.1585 
 414   0.0000       3.365268        91.5736 
 415   0.0000       3.368115        91.6511 
 416   0.0000       3.397662        92.4551 
 417   0.0000       3.452999        93.9609 
 418   0.0000       3.464959        94.2863 
 419   0.0000       3.472113        94.4810 
 420   0.0000       3.474451        94.5446 
 421   0.0000       3.477699        94.6330 
 422   0.0000       3.483172        94.7819 
 423   0.0000       3.485453        94.8440 
 424   0.0000       3.492901        95.0467 
 425   0.0000       3.504983        95.3754 
 426   0.0000       3.508359        95.4673 
 427   0.0000       3.510635        95.5292 
 428   0.0000       3.517508        95.7163 
 429   0.0000       3.548257        96.5530 
 430   0.0000       3.548603        96.5624 
 431   0.0000       3.557251        96.7977 
 432   0.0000       3.562171        96.9316 
 433   0.0000       3.565228        97.0148 
 434   0.0000       3.573217        97.2322 
 435   0.0000       3.583969        97.5248 
 436   0.0000       3.590000        97.6889 
 437   0.0000       3.609913        98.2307 
 438   0.0000       3.636937        98.9661 
 439   0.0000       3.649936        99.3198 
 440   0.0000       3.677521       100.0704 
 441   0.0000       3.682362       100.2022 
 442   0.0000       3.693103       100.4945 
 443   0.0000       3.696861       100.5967 
 444   0.0000       3.718606       101.1884 
 445   0.0000       3.744495       101.8929 
 446   0.0000       3.755620       102.1956 
 447   0.0000       3.772478       102.6543 
 448   0.0000       3.779670       102.8500 
 449   0.0000       3.784634       102.9851 
 450   0.0000       3.815514       103.8254 
 451   0.0000       3.819781       103.9415 
 452   0.0000       3.826156       104.1150 
 453   0.0000       3.869129       105.2843 
 454   0.0000       3.875648       105.4617 
 455   0.0000       3.895306       105.9967 
 456   0.0000       3.906761       106.3084 
 457   0.0000       3.911919       106.4487 
 458   0.0000       3.965436       107.9050 
 459   0.0000       3.982540       108.3704 
 460   0.0000       3.987055       108.4933 
 461   0.0000       4.008529       109.0776 
 462   0.0000       4.009107       109.0933 
 463   0.0000       4.019084       109.3648 
 464   0.0000       4.030912       109.6867 
 465   0.0000       4.054772       110.3360 
 466   0.0000       4.072710       110.8241 
 467   0.0000       4.142868       112.7332 
 468   0.0000       4.149805       112.9219 
 469   0.0000       4.267618       116.1278 
 470   0.0000       4.274563       116.3168 
 471   0.0000       4.296382       116.9105 
 472   0.0000       4.370027       118.9145 
 473   0.0000       4.370561       118.9290 
 474   0.0000       4.398000       119.6757 
 475   0.0000       4.464842       121.4945 
 476   0.0000       4.465131       121.5024 
 477   0.0000       4.491624       122.2233 
 478   0.0000       4.509913       122.7210 
 479   0.0000       4.551140       123.8428 
 480   0.0000       4.575883       124.5161 
 481   0.0000       4.578936       124.5992 
 482   0.0000       4.622578       125.7868 
 483   0.0000       4.659709       126.7971 
 484   0.0000       4.707367       128.0940 
 485   0.0000       4.708163       128.1156 
 486   0.0000       4.712028       128.2208 
 487   0.0000       4.799660       130.6054 
 488   0.0000       4.853893       132.0811 
 489   0.0000       4.855386       132.1218 
 490   0.0000       4.883021       132.8738 
 491   0.0000       4.901122       133.3663 
 492   0.0000       4.934048       134.2623 
 493   0.0000       4.945815       134.5825 
 494   0.0000       5.073653       138.0611 
 495   0.0000       5.086589       138.4131 
 496   0.0000       5.193402       141.3196 
 497   0.0000       5.196887       141.4145 
 498   0.0000       5.197946       141.4433 
 499   0.0000       5.200471       141.5120 
 500   0.0000       5.202264       141.5608 
 501   0.0000       5.202808       141.5756 
 502   0.0000       5.203181       141.5858 
 503   0.0000       5.203804       141.6027 
 504   0.0000       5.210199       141.7767 
 505   0.0000       5.213078       141.8551 
 506   0.0000       5.225045       142.1807 
 507   0.0000       5.231144       142.3467 
 508   0.0000       5.292512       144.0166 
 509   0.0000       5.426957       147.6750 
 510   0.0000       5.496639       149.5711 
 511   0.0000       5.554989       151.1589 
 512   0.0000       5.563863       151.4004 
 513   0.0000       5.580621       151.8564 
 514   0.0000       5.591703       152.1580 
 515   0.0000       5.592263       152.1732 
 516   0.0000       5.594036       152.2214 
 517   0.0000       5.601084       152.4133 
 518   0.0000       5.601459       152.4234 
 519   0.0000       5.608789       152.6229 
 520   0.0000       5.611777       152.7042 
 521   0.0000       5.659543       154.0040 
 522   0.0000       5.700692       155.1237 
 523   0.0000       5.767757       156.9486 
 524   0.0000       5.800625       157.8430 
 525   0.0000       5.824487       158.4924 
 526   0.0000       5.840686       158.9331 
 527   0.0000       5.843284       159.0038 
 528   0.0000       5.857193       159.3823 
 529   0.0000       5.858107       159.4072 
 530   0.0000       5.928985       161.3359 
 531   0.0000       6.136695       166.9880 
 532   0.0000       6.272761       170.6905 
 533   0.0000       6.276514       170.7926 
 534   0.0000       6.314015       171.8131 
 535   0.0000       6.324922       172.1099 
 536   0.0000       6.340910       172.5449 
 537   0.0000       6.419495       174.6833 
 538   0.0000       6.480380       176.3401 
 539   0.0000       6.481308       176.3654 
 540   0.0000       6.486660       176.5110 
 541   0.0000       6.511172       177.1780 
 542   0.0000       6.540802       177.9843 
 543   0.0000       6.543011       178.0444 
 544   0.0000       6.545025       178.0992 
 545   0.0000       6.550749       178.2550 
 546   0.0000       6.552536       178.3036 
 547   0.0000       6.562039       178.5622 
 548   0.0000       6.562836       178.5839 
 549   0.0000       6.573510       178.8743 
 550   0.0000       6.582926       179.1305 
 551   0.0000       6.583017       179.1330 
 552   0.0000       6.595833       179.4817 
 553   0.0000       6.598933       179.5661 
 554   0.0000       6.607531       179.8000 
 555   0.0000       6.612265       179.9289 
 556   0.0000       6.751045       183.7053 
 557   0.0000       6.753611       183.7751 
 558   0.0000       6.784234       184.6084 
 559   0.0000       6.888498       187.4456 
 560   0.0000       6.905211       187.9003 
 561   0.0000       6.930318       188.5835 
 562   0.0000       6.933628       188.6736 
 563   0.0000       6.951036       189.1473 
 564   0.0000       6.960430       189.4029 
 565   0.0000       6.981260       189.9697 
 566   0.0000       7.010489       190.7651 
 567   0.0000       7.037942       191.5121 
 568   0.0000       7.044688       191.6957 
 569   0.0000       7.052494       191.9081 
 570   0.0000       7.063630       192.2111 
 571   0.0000       7.067886       192.3269 
 572   0.0000       7.107606       193.4078 
 573   0.0000       7.124952       193.8798 
 574   0.0000       7.217974       196.4111 
 575   0.0000       7.261239       197.5884 
 576   0.0000       7.269595       197.8157 
 577   0.0000       7.310125       198.9186 
 578   0.0000       7.339514       199.7183 
 579   0.0000       7.410691       201.6552 
 580   0.0000       7.559213       205.6967 
 581   0.0000       7.560368       205.7281 
 582   0.0000      23.764154       646.6555 
 583   0.0000      23.829119       648.4233 
 584   0.0000      23.842774       648.7949 
 585   0.0000      23.868665       649.4994 
 586   0.0000      23.987577       652.7352 
 587   0.0000      24.070896       655.0024 
 588   0.0000      24.123397       656.4310 
 589   0.0000      44.612715      1213.9737 
 590   0.0000      44.714657      1216.7477 
 591   0.0000      44.739974      1217.4366 
 592   0.0000      44.814936      1219.4764 
 593   0.0000      44.818760      1219.5805 

                    ********************************
                    * MULLIKEN POPULATION ANALYSIS *
                    ********************************

-----------------------
MULLIKEN ATOMIC CHARGES
-----------------------
   0 Cr:   -0.838378
   1 O :   -0.387837
   2 C :    0.518351
   3 C :    0.550608
   4 O :   -0.389598
   5 C :    0.518699
   6 O :   -0.387947
   7 C :    0.559032
   8 O :   -0.378672
   9 C :    0.559331
  10 O :   -0.378753
  11 C :   -0.621788
  12 H :    0.324690
  13 H :    0.324809
  14 C :   -0.622300
  15 H :    0.324811
  16 H :    0.324942
Sum of atomic charges:   -0.0000000

--------------------------------
MULLIKEN REDUCED ORBITAL CHARGES
--------------------------------
  0 Crs       :     6.900130  s :     6.900130
      pz      :     4.170966  p :    12.435861
      px      :     4.112789
      py      :     4.152106
      dz2     :     0.556166  d :     5.480350
      dxz     :     1.337641
      dyz     :     1.496307
      dx2y2   :     0.683356
      dxy     :     1.406880
      f0      :     0.004753  f :     0.021748
      f+1     :     0.002997
      f-1     :     0.003930
      f+2     :     0.000993
      f-2     :     0.000186
      f+3     :     0.004347
      f-3     :     0.004543
      g0      :     0.000064  g :     0.000289
      g+1     :     0.000012
      g-1     :     0.000013
      g+2     :     0.000067
      g-2     :     0.000011
      g+3     :     0.000013
      g-3     :     0.000008
      g+4     :     0.000086
      g-4     :     0.000015
  1 O s       :     4.031624  s :     4.031624
      pz      :     1.496928  p :     4.306950
      px      :     1.328036
      py      :     1.481987
      dz2     :     0.003729  d :     0.047416
      dxz     :     0.016670
      dyz     :     0.000048
      dx2y2   :     0.009845
      dxy     :     0.017124
      f0      :     0.000246  f :     0.001847
      f+1     :     0.000203
      f-1     :     0.000041
      f+2     :     0.000416
      f-2     :     0.000013
      f+3     :     0.000291
      f-3     :     0.000635
  2 C s       :     3.337324  s :     3.337324
      pz      :     0.600297  p :     2.020421
      px      :     0.823535
      py      :     0.596590
      dz2     :     0.001533  d :     0.107109
      dxz     :     0.055113
      dyz     :     0.003399
      dx2y2   :    -0.006505
      dxy     :     0.053568
      f0      :     0.002025  f :     0.016795
      f+1     :     0.002222
      f-1     :     0.000355
      f+2     :     0.003472
      f-2     :     0.000250
      f+3     :     0.003351
      f-3     :     0.005120
  3 C s       :     3.315335  s :     3.315335
      pz      :     0.809244  p :     2.002465
      px      :     0.583378
      py      :     0.609842
      dz2     :    -0.004205  d :     0.114493
      dxz     :     0.054215
      dyz     :     0.056428
      dx2y2   :     0.004164
      dxy     :     0.003891
      f0      :     0.005569  f :     0.017100
      f+1     :     0.005575
      f-1     :     0.005604
      f+2     :     0.000147
      f-2     :     0.000183
      f+3     :     0.000014
      f-3     :     0.000009
  4 O s       :     4.021496  s :     4.021496
      pz      :     1.326883  p :     4.316158
      px      :     1.483666
      py      :     1.505609
      dz2     :     0.014470  d :     0.050108
      dxz     :     0.017934
      dyz     :     0.018126
      dx2y2   :    -0.000314
      dxy     :    -0.000108
      f0      :     0.000472  f :     0.001837
      f+1     :     0.000684
      f-1     :     0.000679
      f+2     :     0.000000
      f-2     :     0.000001
      f+3     :     0.000000
      f-3     :     0.000000
  5 C s       :     3.336949  s :     3.336949
      pz      :     0.600213  p :     2.020434
      px      :     0.823645
      py      :     0.596576
      dz2     :     0.001504  d :     0.107123
      dxz     :     0.055186
      dyz     :     0.003393
      dx2y2   :    -0.006531
      dxy     :     0.053571
      f0      :     0.002027  f :     0.016795
      f+1     :     0.002218
      f-1     :     0.000355
      f+2     :     0.003473
      f-2     :     0.000247
      f+3     :     0.003352
      f-3     :     0.005122
  6 O s       :     4.031709  s :     4.031709
      pz      :     1.496970  p :     4.306974
      px      :     1.328016
      py      :     1.481988
      dz2     :     0.003720  d :     0.047416
      dxz     :     0.016680
      dyz     :     0.000044
      dx2y2   :     0.009844
      dxy     :     0.017128
      f0      :     0.000247  f :     0.001847
      f+1     :     0.000203
      f-1     :     0.000041
      f+2     :     0.000416
      f-2     :     0.000013
      f+3     :     0.000291
      f-3     :     0.000636
  7 C s       :     3.326576  s :     3.326576
      pz      :     0.589371  p :     1.998021
      px      :     0.584511
      py      :     0.824138
      dz2     :     0.000522  d :     0.099606
      dxz     :     0.004202
      dyz     :     0.046452
      dx2y2   :    -0.004773
      dxy     :     0.053203
      f0      :     0.002096  f :     0.016765
      f+1     :     0.000372
      f-1     :     0.002078
      f+2     :     0.003507
      f-2     :     0.000147
      f+3     :     0.005200
      f-3     :     0.003365
  8 O s       :     4.035199  s :     4.035199
      pz      :     1.482677  p :     4.295387
      px      :     1.487369
      py      :     1.325341
      dz2     :     0.002832  d :     0.046256
      dxz     :    -0.000048
      dyz     :     0.017142
      dx2y2   :     0.009220
      dxy     :     0.017109
      f0      :     0.000254  f :     0.001831
      f+1     :     0.000042
      f-1     :     0.000174
      f+2     :     0.000427
      f-2     :     0.000001
      f+3     :     0.000641
      f-3     :     0.000292
  9 C s       :     3.326273  s :     3.326273
      pz      :     0.589364  p :     1.998016
      px      :     0.584511
      py      :     0.824140
      dz2     :     0.000528  d :     0.099615
      dxz     :     0.004216
      dyz     :     0.046486
      dx2y2   :    -0.004798
      dxy     :     0.053184
      f0      :     0.002096  f :     0.016765
      f+1     :     0.000372
      f-1     :     0.002078
      f+2     :     0.003507
      f-2     :     0.000147
      f+3     :     0.005200
      f-3     :     0.003365
 10 O s       :     4.035263  s :     4.035263
      pz      :     1.482690  p :     4.295407
      px      :     1.487373
      py      :     1.325343
      dz2     :     0.002828  d :     0.046252
      dxz     :    -0.000049
      dyz     :     0.017146
      dx2y2   :     0.009217
      dxy     :     0.017110
      f0      :     0.000254  f :     0.001831
      f+1     :     0.000042
      f-1     :     0.000174
      f+2     :     0.000427
      f-2     :     0.000001
      f+3     :     0.000641
      f-3     :     0.000292
 11 C s       :     3.457933  s :     3.457933
      pz      :     0.904296  p :     3.117470
      px      :     0.911805
      py      :     1.301369
      dz2     :     0.008744  d :     0.042002
      dxz     :     0.036916
      dyz     :    -0.004403
      dx2y2   :    -0.010011
      dxy     :     0.010756
      f0      :     0.000695  f :     0.004383
      f+1     :     0.000465
      f-1     :     0.000572
      f+2     :     0.000756
      f-2     :     0.000087
      f+3     :     0.000669
      f-3     :     0.001139
 12 H s       :     0.616659  s :     0.616659
      pz      :     0.017324  p :     0.056300
      px      :     0.020976
      py      :     0.018000
      dz2     :     0.000215  d :     0.002352
      dxz     :     0.000287
      dyz     :     0.000547
      dx2y2   :     0.000775
      dxy     :     0.000529
 13 H s       :     0.616553  s :     0.616553
      pz      :     0.017275  p :     0.056285
      px      :     0.020970
      py      :     0.018040
      dz2     :     0.000214  d :     0.002352
      dxz     :     0.000286
      dyz     :     0.000547
      dx2y2   :     0.000775
      dxy     :     0.000530
 14 C s       :     3.458429  s :     3.458429
      pz      :     0.904100  p :     3.117488
      px      :     0.912000
      py      :     1.301389
      dz2     :     0.008715  d :     0.042000
      dxz     :     0.036926
      dyz     :    -0.004431
      dx2y2   :    -0.009989
      dxy     :     0.010780
      f0      :     0.000694  f :     0.004383
      f+1     :     0.000467
      f-1     :     0.000572
      f+2     :     0.000756
      f-2     :     0.000087
      f+3     :     0.000669
      f-3     :     0.001139
 15 H s       :     0.616553  s :     0.616553
      pz      :     0.017289  p :     0.056284
      px      :     0.020970
      py      :     0.018025
      dz2     :     0.000214  d :     0.002352
      dxz     :     0.000286
      dyz     :     0.000547
      dx2y2   :     0.000775
      dxy     :     0.000530
 16 H s       :     0.616395  s :     0.616395
      pz      :     0.017336  p :     0.056312
      px      :     0.020979
      py      :     0.017996
      dz2     :     0.000215  d :     0.002352
      dxz     :     0.000286
      dyz     :     0.000547
      dx2y2   :     0.000775
      dxy     :     0.000530


                     *******************************
                     * LOEWDIN POPULATION ANALYSIS *
                     *******************************

----------------------
LOEWDIN ATOMIC CHARGES
----------------------
   0 Cr:   -0.452392
   1 O :    0.159555
   2 C :   -0.098733
   3 C :   -0.111946
   4 O :    0.150793
   5 C :   -0.098744
   6 O :    0.159557
   7 C :   -0.064638
   8 O :    0.158184
   9 C :   -0.064677
  10 O :    0.158190
  11 C :    0.076734
  12 H :   -0.012161
  13 H :   -0.012136
  14 C :    0.076722
  15 H :   -0.012138
  16 H :   -0.012169

-------------------------------
LOEWDIN REDUCED ORBITAL CHARGES
-------------------------------
  0 Crs       :     5.936505  s :     5.936505
      pz      :     4.250078  p :    12.845079
      px      :     4.295010
      py      :     4.299991
      dz2     :     0.832075  d :     5.578216
      dxz     :     1.236916
      dyz     :     1.354755
      dx2y2   :     0.896653
      dxy     :     1.257817
      f0      :     0.019496  f :     0.091397
      f+1     :     0.012796
      f-1     :     0.014809
      f+2     :     0.003393
      f-2     :     0.000402
      f+3     :     0.019857
      f-3     :     0.020644
      g0      :     0.000355  g :     0.001195
      g+1     :     0.000032
      g-1     :     0.000026
      g+2     :     0.000278
      g-2     :     0.000016
      g+3     :     0.000018
      g-3     :     0.000011
      g+4     :     0.000429
      g-4     :     0.000030
  1 O s       :     3.379141  s :     3.379141
      pz      :     1.348225  p :     4.271841
      px      :     1.586140
      py      :     1.337475
      dz2     :     0.027396  d :     0.183446
      dxz     :     0.039736
      dyz     :     0.000306
      dx2y2   :     0.079318
      dxy     :     0.036689
      f0      :     0.000520  f :     0.006018
      f+1     :     0.001229
      f-1     :     0.000078
      f+2     :     0.000889
      f-2     :     0.000025
      f+3     :     0.002049
      f-3     :     0.001227
  2 C s       :     2.887110  s :     2.887110
      pz      :     0.596153  p :     2.243040
      px      :     1.054101
      py      :     0.592787
      dz2     :     0.117292  d :     0.882318
      dxz     :     0.268094
      dyz     :     0.025497
      dx2y2   :     0.201816
      dxy     :     0.269619
      f0      :     0.010462  f :     0.086265
      f+1     :     0.011988
      f-1     :     0.001654
      f+2     :     0.017394
      f-2     :     0.001051
      f+3     :     0.018239
      f-3     :     0.025476
  3 C s       :     2.881085  s :     2.881085
      pz      :     1.055315  p :     2.258484
      px      :     0.591939
      py      :     0.611230
      dz2     :     0.264498  d :     0.886267
      dxz     :     0.278176
      dyz     :     0.289104
      dx2y2   :     0.036898
      dxy     :     0.017591
      f0      :     0.030222  f :     0.086109
      f+1     :     0.027267
      f-1     :     0.027565
      f+2     :     0.000381
      f-2     :     0.000593
      f+3     :     0.000050
      f-3     :     0.000032
  4 O s       :     3.380176  s :     3.380176
      pz      :     1.584990  p :     4.278316
      px      :     1.336672
      py      :     1.356653
      dz2     :     0.105851  d :     0.184683
      dxz     :     0.036863
      dyz     :     0.041816
      dx2y2   :     0.000107
      dxy     :     0.000046
      f0      :     0.003317  f :     0.006031
      f+1     :     0.001307
      f-1     :     0.001406
      f+2     :     0.000000
      f-2     :     0.000001
      f+3     :     0.000000
      f-3     :     0.000000
  5 C s       :     2.887101  s :     2.887101
      pz      :     0.596051  p :     2.243039
      px      :     1.054196
      py      :     0.592792
      dz2     :     0.117206  d :     0.882339
      dxz     :     0.268209
      dyz     :     0.025450
      dx2y2   :     0.201812
      dxy     :     0.269661
      f0      :     0.010472  f :     0.086265
      f+1     :     0.011970
      f-1     :     0.001658
      f+2     :     0.017396
      f-2     :     0.001036
      f+3     :     0.018245
      f-3     :     0.025488
  6 O s       :     3.379139  s :     3.379139
      pz      :     1.348171  p :     4.271841
      px      :     1.586190
      py      :     1.337480
      dz2     :     0.027406  d :     0.183446
      dxz     :     0.039700
      dyz     :     0.000298
      dx2y2   :     0.079344
      dxy     :     0.036698
      f0      :     0.000520  f :     0.006018
      f+1     :     0.001230
      f-1     :     0.000078
      f+2     :     0.000888
      f-2     :     0.000024
      f+3     :     0.002050
      f-3     :     0.001228
  7 C s       :     2.902550  s :     2.902550
      pz      :     0.586222  p :     2.233437
      px      :     0.587069
      py      :     1.060146
      dz2     :     0.093318  d :     0.842970
      dxz     :     0.022994
      dyz     :     0.257174
      dx2y2   :     0.201376
      dxy     :     0.268108
      f0      :     0.010452  f :     0.085681
      f+1     :     0.001776
      f-1     :     0.011176
      f+2     :     0.017353
      f-2     :     0.000506
      f+3     :     0.026014
      f-3     :     0.018405
  8 O s       :     3.384485  s :     3.384485
      pz      :     1.337160  p :     4.270738
      px      :     1.341478
      py      :     1.592100
      dz2     :     0.027388  d :     0.180637
      dxz     :     0.000045
      dyz     :     0.035931
      dx2y2   :     0.080943
      dxy     :     0.036330
      f0      :     0.000496  f :     0.005957
      f+1     :     0.000082
      f-1     :     0.001246
      f+2     :     0.000829
      f-2     :     0.000001
      f+3     :     0.001224
      f-3     :     0.002079
  9 C s       :     2.902520  s :     2.902520
      pz      :     0.586204  p :     2.233444
      px      :     0.587077
      py      :     1.060163
      dz2     :     0.093348  d :     0.843031
      dxz     :     0.023004
      dyz     :     0.257202
      dx2y2   :     0.201360
      dxy     :     0.268116
      f0      :     0.010453  f :     0.085682
      f+1     :     0.001776
      f-1     :     0.011174
      f+2     :     0.017353
      f-2     :     0.000504
      f+3     :     0.026015
      f-3     :     0.018406
 10 O s       :     3.384479  s :     3.384479
      pz      :     1.337156  p :     4.270737
      px      :     1.341484
      py      :     1.592097
      dz2     :     0.027393  d :     0.180637
      dxz     :     0.000044
      dyz     :     0.035922
      dx2y2   :     0.080945
      dxy     :     0.036333
      f0      :     0.000496  f :     0.005957
      f+1     :     0.000082
      f-1     :     0.001246
      f+2     :     0.000829
      f-2     :     0.000001
      f+3     :     0.001224
      f-3     :     0.002079
 11 C s       :     2.664377  s :     2.664377
      pz      :     0.714554  p :     2.619594
      px      :     0.965775
      py      :     0.939265
      dz2     :     0.089080  d :     0.609960
      dxz     :     0.126951
      dyz     :     0.060465
      dx2y2   :     0.115821
      dxy     :     0.217641
      f0      :     0.002772  f :     0.029334
      f+1     :     0.003305
      f-1     :     0.002383
      f+2     :     0.004927
      f-2     :     0.000932
      f+3     :     0.007021
      f-3     :     0.007993
 12 H s       :     0.691789  s :     0.691789
      pz      :     0.088740  p :     0.290429
      px      :     0.081719
      py      :     0.119971
      dz2     :     0.003279  d :     0.029942
      dxz     :     0.002495
      dyz     :     0.006078
      dx2y2   :     0.009290
      dxy     :     0.008801
 13 H s       :     0.691795  s :     0.691795
      pz      :     0.088708  p :     0.290401
      px      :     0.081703
      py      :     0.119990
      dz2     :     0.003275  d :     0.029940
      dxz     :     0.002489
      dyz     :     0.006079
      dx2y2   :     0.009294
      dxy     :     0.008804
 14 C s       :     2.664375  s :     2.664375
      pz      :     0.714543  p :     2.619585
      px      :     0.965772
      py      :     0.939269
      dz2     :     0.088997  d :     0.609984
      dxz     :     0.127010
      dyz     :     0.060547
      dx2y2   :     0.115868
      dxy     :     0.217562
      f0      :     0.002773  f :     0.029335
      f+1     :     0.003309
      f-1     :     0.002380
      f+2     :     0.004925
      f-2     :     0.000934
      f+3     :     0.007020
      f-3     :     0.007994
 15 H s       :     0.691794  s :     0.691794
      pz      :     0.088716  p :     0.290403
      px      :     0.081709
      py      :     0.119978
      dz2     :     0.003277  d :     0.029941
      dxz     :     0.002489
      dyz     :     0.006079
      dx2y2   :     0.009293
      dxy     :     0.008802
 16 H s       :     0.691788  s :     0.691788
      pz      :     0.088750  p :     0.290438
      px      :     0.081706
      py      :     0.119983
      dz2     :     0.003281  d :     0.029943
      dxz     :     0.002492
      dyz     :     0.006081
      dx2y2   :     0.009290
      dxy     :     0.008799


                      *****************************
                      * MAYER POPULATION ANALYSIS *
                      *****************************

  NA   - Mulliken gross atomic population
  ZA   - Total nuclear charge
  QA   - Mulliken gross atomic charge
  VA   - Mayer's total valence
  BVA  - Mayer's bonded valence
  FA   - Mayer's free valence

  ATOM       NA         ZA         QA         VA         BVA        FA
  0 Cr    24.8384    24.0000    -0.8384     6.2697     6.2697    -0.0000
  1 O      8.3878     8.0000    -0.3878     2.0717     2.0717     0.0000
  2 C      5.4816     6.0000     0.5184     2.9112     2.9112    -0.0000
  3 C      5.4494     6.0000     0.5506     3.0412     3.0412    -0.0000
  4 O      8.3896     8.0000    -0.3896     2.0875     2.0875    -0.0000
  5 C      5.4813     6.0000     0.5187     2.9121     2.9121    -0.0000
  6 O      8.3879     8.0000    -0.3879     2.0720     2.0720     0.0000
  7 C      5.4410     6.0000     0.5590     2.7525     2.7525    -0.0000
  8 O      8.3787     8.0000    -0.3787     2.0730     2.0730     0.0000
  9 C      5.4407     6.0000     0.5593     2.7522     2.7522    -0.0000
 10 O      8.3788     8.0000    -0.3788     2.0731     2.0731    -0.0000
 11 C      6.6218     6.0000    -0.6218     3.2202     3.2202     0.0000
 12 H      0.6753     1.0000     0.3247     1.0241     1.0241     0.0000
 13 H      0.6752     1.0000     0.3248     1.0240     1.0240    -0.0000
 14 C      6.6223     6.0000    -0.6223     3.2201     3.2201     0.0000
 15 H      0.6752     1.0000     0.3248     1.0240     1.0240     0.0000
 16 H      0.6751     1.0000     0.3249     1.0240     1.0240     0.0000

  Mayer bond orders larger than 0.100000
B(  0-Cr,  1-O ) :   0.1320 B(  0-Cr,  2-C ) :   0.9342 B(  0-Cr,  3-C ) :   1.1515 
B(  0-Cr,  4-O ) :   0.1361 B(  0-Cr,  5-C ) :   0.9350 B(  0-Cr,  6-O ) :   0.1319 
B(  0-Cr,  7-C ) :   0.9329 B(  0-Cr,  8-O ) :   0.1734 B(  0-Cr,  9-C ) :   0.9331 
B(  0-Cr, 10-O ) :   0.1736 B(  0-Cr, 11-C ) :   0.2578 B(  0-Cr, 14-C ) :   0.2576 
B(  1-O ,  2-C ) :   1.8931 B(  3-C ,  4-O ) :   1.9194 B(  5-C ,  6-O ) :   1.8934 
B(  7-C ,  8-O ) :   1.8719 B(  9-C , 10-O ) :   1.8717 B( 11-C , 12-H ) :   1.0042 
B( 11-C , 13-H ) :   1.0040 B( 11-C , 14-C ) :   1.0356 B( 14-C , 15-H ) :   1.0041 
B( 14-C , 16-H ) :   1.0042 

-------
TIMINGS
-------

Total SCF time: 0 days 0 hours 5 min 6 sec 

Total time                  ....     306.224 sec
Sum of individual times     ....     305.361 sec  ( 99.7%)

Fock matrix formation       ....     302.104 sec  ( 98.7%)
  XC integration            ....       6.851 sec  (  2.3% of F)
    Basis function eval.    ....       0.709 sec  ( 10.3% of XC)
    Density eval.           ....       2.054 sec  ( 30.0% of XC)
    XC-Functional eval.     ....       0.105 sec  (  1.5% of XC)
    XC-Potential eval.      ....       3.417 sec  ( 49.9% of XC)
Diagonalization             ....       1.287 sec  (  0.4%)
Density matrix formation    ....       0.053 sec  (  0.0%)
Population analysis         ....       0.062 sec  (  0.0%)
Initial guess               ....       0.431 sec  (  0.1%)
Orbital Transformation      ....       0.000 sec  (  0.0%)
Orbital Orthonormalization  ....       0.000 sec  (  0.0%)
DIIS solution               ....       0.757 sec  (  0.2%)
Grid generation             ....       0.666 sec  (  0.2%)

-------------------------   --------------------
FINAL SINGLE POINT ENERGY     -1689.835501150864
-------------------------   --------------------


                            ***************************************
                            *     ORCA property calculations      *
                            ***************************************

                                    ---------------------
                                    Active property flags
                                    ---------------------
   (+) Dipole Moment


------------------------------------------------------------------------------
                       ORCA ELECTRIC PROPERTIES CALCULATION
------------------------------------------------------------------------------

Dipole Moment Calculation                       ... on
Quadrupole Moment Calculation                   ... off
Polarizability Calculation                      ... off
GBWName                                         ... MOR30_pr12.gbw
Electron density file                           ... MOR30_pr12.scfp
The origin for moment calculation is the CENTER OF MASS  = ( 0.000055, -0.000072  0.080640)

-------------
DIPOLE MOMENT
-------------
                                X             Y             Z
Electronic contribution:      0.00528      -0.00683       7.81485
Nuclear contribution   :     -0.00600       0.00791      -8.87043
                        -----------------------------------------
Total Dipole Moment    :     -0.00072       0.00109      -1.05558
                        -----------------------------------------
Magnitude (a.u.)       :      1.05559
Magnitude (Debye)      :      2.68309



--------------------
Rotational spectrum 
--------------------
 
Rotational constants in cm-1:     0.023439     0.023057     0.021301 
Rotational constants in MHz :   702.695821   691.231713   638.589543 

 Dipole components along the rotational axes: 
x,y,z [a.u.] :    -0.000546     0.000758    -1.055585 
x,y,z [Debye]:    -0.001389     0.001927    -2.683084 

 

Timings for individual modules:

Sum of individual times         ...      307.843 sec (=   5.131 min)
GTO integral calculation        ...        1.147 sec (=   0.019 min)   0.4 %
SCF iterations                  ...      306.696 sec (=   5.112 min)  99.6 %
                             ****ORCA TERMINATED NORMALLY****
TOTAL RUN TIME: 0 days 0 hours 5 minutes 8 seconds 520 msec
