
                                 *****************
                                 * O   R   C   A *
                                 *****************

           --- An Ab Initio, DFT and Semiempirical electronic structure package ---

                  #######################################################
                  #                        -***-                        #
                  #          Department of theory and spectroscopy      #
                  #               Directorship: Frank Neese             #
                  #        Max Planck Institute fuer Kohlenforschung    #
                  #                Kaiser Wilhelm Platz 1               #
                  #                 D-45470 Muelheim/Ruhr               #
                  #                      Germany                        #
                  #                                                     #
                  #                  All rights reserved                #
                  #                        -***-                        #
                  #######################################################


                         Program Version 4.2.0 -  RELEASE  -


 With contributions from (in alphabetic order):
   Daniel Aravena         : Magnetic Suceptibility
   Michael Atanasov       : Ab Initio Ligand Field Theory (pilot matlab implementation)
   Alexander A. Auer      : GIAO ZORA, VPT2
   Ute Becker             : Parallelization
   Giovanni Bistoni       : ED, misc. LED, open-shell LED, HFLED
   Martin Brehm           : Molecular dynamics
   Dmytro Bykov           : SCF Hessian
   Vijay G. Chilkuri      : MRCI spin determinant printing, contributions to CSF-ICE
   Dipayan Datta          : RHF DLPNO-CCSD density
   Achintya Kumar Dutta   : EOM-CC, STEOM-CC
   Dmitry Ganyushin       : Spin-Orbit,Spin-Spin,Magnetic field MRCI
   Miquel Garcia          : C-PCM Hessian, Gaussian charge scheme
   Yang Guo               : DLPNO-NEVPT2, CIM, IAO-localization
   Andreas Hansen         : Spin unrestricted coupled pair/coupled cluster methods
   Benjamin Helmich-Paris : CASSCF linear response (MC-RPA)
   Lee Huntington         : MR-EOM, pCC
   Robert Izsak           : Overlap fitted RIJCOSX, COSX-SCS-MP3, EOM
   Christian Kollmar      : KDIIS, OOCD, Brueckner-CCSD(T), CCSD density
   Simone Kossmann        : Meta GGA functionals, TD-DFT gradient, OOMP2, MP2 Hessian
   Martin Krupicka        : AUTO-CI
   Lucas Lang             : DCDCAS
   Dagmar Lenk            : GEPOL surface, SMD
   Dimitrios Liakos       : Extrapolation schemes; Compound Job, initial MDCI parallelization
   Dimitrios Manganas     : Further ROCIS development; embedding schemes
   Dimitrios Pantazis     : SARC Basis sets
   Taras Petrenko         : DFT Hessian,TD-DFT gradient, ASA, ECA, R-Raman, ABS, FL, XAS/XES, NRVS
   Peter Pinski           : DLPNO-MP2, DLPNO-MP2 Gradient
   Christoph Reimann      : Effective Core Potentials
   Marius Retegan         : Local ZFS, SOC
   Christoph Riplinger    : Optimizer, TS searches, QM/MM, DLPNO-CCSD(T), (RO)-DLPNO pert. Triples
   Tobias Risthaus        : Range-separated hybrids, TD-DFT gradient, RPA, STAB
   Michael Roemelt        : Original ROCIS implementation
   Masaaki Saitow         : Open-shell DLPNO-CCSD energy and density
   Barbara Sandhoefer     : DKH picture change effects
   Avijit Sen             : IP-ROCIS
   Kantharuban Sivalingam : CASSCF convergence, NEVPT2, FIC-MRCI
   Bernardo de Souza      : ESD, SOC TD-DFT
   Georgi Stoychev        : AutoAux, RI-MP2 NMR
   Willem Van den Heuvel  : Paramagnetic NMR
   Boris Wezisla          : Elementary symmetry handling
   Frank Wennmohs         : Technical directorship


 We gratefully acknowledge several colleagues who have allowed us to
 interface, adapt or use parts of their codes:
   Stefan Grimme, W. Hujo, H. Kruse,             : VdW corrections, initial TS optimization,
                  C. Bannwarth                     DFT functionals, gCP, sTDA/sTD-DF
   Ed Valeev, F. Pavosevic, A. Kumar             : LibInt (2-el integral package), F12 methods
   Garnet Chan, S. Sharma, J. Yang, R. Olivares  : DMRG
   Ulf Ekstrom                                   : XCFun DFT Library
   Mihaly Kallay                                 : mrcc  (arbitrary order and MRCC methods)
   Andreas Klamt, Michael Diedenhofen            : otool_cosmo (COSMO solvation model)
   Jiri Pittner, Ondrej Demel                    : Mk-CCSD
   Frank Weinhold                                : gennbo (NPA and NBO analysis)
   Christopher J. Cramer and Donald G. Truhlar   : smd solvation model
   Lars Goerigk                                  : TD-DFT with DH, B97 family of functionals
   V. Asgeirsson, H. Jonsson                     : NEB implementation
   FAccTs GmbH                                   : IRC, NEB, NEB-TS, Multilevel, MM, QM/MM, CI optimization
   S Lehtola, MJT Oliveira, MAL Marques          : LibXC Library


 Your calculation uses the libint2 library for the computation of 2-el integrals
 For citations please refer to: http://libint.valeyev.net

 Your ORCA version has been built with support for libXC version: 4.2.3
 For citations please refer to: https://tddft.org/programs/libxc/

 This ORCA versions uses:
   CBLAS   interface :  Fast vector & matrix operations
   LAPACKE interface :  Fast linear algebra routines
   SCALAPACK package :  Parallel linear algebra routines


Your calculation utilizes the DFT-NL dispersion correction.
Cite in your paper:
Vydrov, O. A.; Van Voorhis, T. J. Chem. Phys. 2010, 133, 244103
Hujo, W.; Grimme, S. J. Chem. Theory Comput. 2011, 7, 3866 
   

----- Orbital basis set information -----
Your calculation utilizes the basis: def2-TZVPPD
   F. Weigend and R. Ahlrichs, Phys. Chem. Chem. Phys. 7, 3297 (2005).
   D. Rappoport and F. Furche, J. Chem. Phys. 133 134105 (2010).

----- AuxJK basis set information -----
Your calculation utilizes the auxiliary basis: def2/JK
   H-Ba, Hf-Rn: F. Weigend, J. Comput. Chem. 29, 167 (2008).

cite the ECPs for Ru [Def2-ECP] as follows:
Ce-Yb(ecp-28): M. Dolg, H. Stoll, H.Preuss, J. Chem. Phys., 1989, 90, 1730-1734.
Y-Cd(ecp-28), Hf-Hg(ecp-46): D. Andrae,U. Haeussermann, M. Dolg, H. Stoll, H. Preuss, Theor. Chim. Acta, 1990, 77, 123-141.
In-Sb(ecp-28), Tl-Bi(ecp-46): B. Metz, H. Stoll, M. Dolg, J. Chem. Phys., 2000, 113, 2563-2569.
Te-Xe(ecp-28), Po-Rn(ecp-46): K. A. Peterson, D. Figgen, E. Goll, H. Stoll, M. Dolg, J. Chem. Phys., 2003, 119, 11113-11123.
Rb(ecp-28), Cs(ecp-46): T. Leininger, A. Nicklass, W. Kuechle, H. Stoll, M. Dolg, A. Bergner, Chem. Phys. Lett., 1996, 255, 274-280.
Sr(ecp-28), Ba(ecp-46): M. Kaupp, P. V. Schleyer, H. Stoll and H. Preuss, J. Chem. Phys., 1991, 94, 1360-1366.
La(ecp-46): M. Dolg, H. Stoll, A. Savin, H. Preuss, Theor. Chim. Acta, 1989, 75, 173-194.
Lu(ecp-28): X. Cao, M. Dolg, J. Chem. Phys., 2001, 115, 7348-7355.

ECP parameters for Ru [Def2-ECP] have been obtained from:
TURBOMOLE (7.0.2)

================================================================================
                                        WARNINGS
                       Please study these warnings very carefully!
================================================================================


INFO   : the flag for use of LIBINT has been found!

================================================================================
                                       INPUT FILE
================================================================================
NAME = MOR33_pr28.in
|  1> #
|  2> # MOR33_pr28 wB97M-V/Def2-TZVPPD
|  3> #
|  4> ! wb97m-v def2-tzvppd def2/jk grid4 nofinalgrid
|  5> 
|  6> *xyz 0 1
|  7> C        1.962238    1.228976    0.498763 
|  8> C        1.599117    0.285883    1.541183 
|  9> C        2.190996   -0.926462   -0.368778 
| 10> C        2.300550    0.493131   -0.671789 
| 11> C        2.081248    2.713946    0.664976 
| 12> H        1.434728    3.080045    1.466376 
| 13> H        1.821015    3.245065   -0.254703 
| 14> H        3.112287    2.986784    0.927647 
| 15> C        2.741378    1.051608   -1.988266 
| 16> H        2.535990    2.123448   -2.051886 
| 17> H        2.213045    0.558789   -2.809947 
| 18> H        3.820515    0.902993   -2.128525 
| 19> C        2.527241   -2.035347   -1.317221 
| 20> H        3.613873   -2.134320   -1.446849 
| 21> H        2.080344   -1.846887   -2.298459 
| 22> H        2.144835   -2.993343   -0.953257 
| 23> C        1.716574   -2.315630    1.788054 
| 24> H        2.711935   -2.577282    2.171299 
| 25> H        1.368788   -3.152284    1.175589 
| 26> H        1.050088   -2.217418    2.648594 
| 27> C        1.340513    0.619038    2.979845 
| 28> H        2.276059    0.647386    3.557074 
| 29> H        0.683714   -0.121696    3.445256 
| 30> H        0.861589    1.596880    3.080055 
| 31> Ru       0.207249   -0.005545   -0.119227 
| 32> Cl      -0.429544   -0.245973   -2.480800 
| 33> P       -1.456891    1.528216    0.068580 
| 34> C       -1.650760    2.737817   -1.304822 
| 35> H       -1.703179    2.179367   -2.242601 
| 36> H       -0.763254    3.377318   -1.338338 
| 37> H       -2.542801    3.360896   -1.175052 
| 38> C       -1.549065    2.651656    1.528190 
| 39> H       -2.472379    3.241595    1.506577 
| 40> H       -0.697323    3.336564    1.527717 
| 41> H       -1.520496    2.059136    2.446687 
| 42> C       -3.144680    0.720288    0.161598 
| 43> H       -3.432756    0.709722    1.219807 
| 44> H       -3.887248    1.321720   -0.374189 
| 45> C        1.787636   -1.042026    1.001372 
| 46> P       -1.484414   -1.469966    0.216463 
| 47> H       -2.382409   -3.625079   -0.568542 
| 48> H       -0.624918   -3.689033   -0.270965 
| 49> H       -1.236340   -2.863867   -1.723131 
| 50> C       -3.065590   -0.710530   -0.380679 
| 51> C       -1.439182   -3.076884   -0.670420 
| 52> C       -1.931261   -2.000447    1.926464 
| 53> H       -2.988264   -0.701756   -1.472521 
| 54> H       -3.935017   -1.311110   -0.088429 
| 55> H       -1.104361   -2.563780    2.366010 
| 56> H       -2.827619   -2.630913    1.925421 
| 57> H       -2.109292   -1.117280    2.546403 
| 58> *
| 59> 
| 60> %maxcore 5000
| 61> 
| 62> %pal
| 63> nprocs = 24
| 64> end
| 65> 
| 66> 
| 67>                          ****END OF INPUT****
================================================================================

                       ****************************
                       * Single Point Calculation *
                       ****************************

---------------------------------
CARTESIAN COORDINATES (ANGSTROEM)
---------------------------------
  C      1.962238    1.228976    0.498763
  C      1.599117    0.285883    1.541183
  C      2.190996   -0.926462   -0.368778
  C      2.300550    0.493131   -0.671789
  C      2.081248    2.713946    0.664976
  H      1.434728    3.080045    1.466376
  H      1.821015    3.245065   -0.254703
  H      3.112287    2.986784    0.927647
  C      2.741378    1.051608   -1.988266
  H      2.535990    2.123448   -2.051886
  H      2.213045    0.558789   -2.809947
  H      3.820515    0.902993   -2.128525
  C      2.527241   -2.035347   -1.317221
  H      3.613873   -2.134320   -1.446849
  H      2.080344   -1.846887   -2.298459
  H      2.144835   -2.993343   -0.953257
  C      1.716574   -2.315630    1.788054
  H      2.711935   -2.577282    2.171299
  H      1.368788   -3.152284    1.175589
  H      1.050088   -2.217418    2.648594
  C      1.340513    0.619038    2.979845
  H      2.276059    0.647386    3.557074
  H      0.683714   -0.121696    3.445256
  H      0.861589    1.596880    3.080055
  Ru     0.207249   -0.005545   -0.119227
  Cl    -0.429544   -0.245973   -2.480800
  P     -1.456891    1.528216    0.068580
  C     -1.650760    2.737817   -1.304822
  H     -1.703179    2.179367   -2.242601
  H     -0.763254    3.377318   -1.338338
  H     -2.542801    3.360896   -1.175052
  C     -1.549065    2.651656    1.528190
  H     -2.472379    3.241595    1.506577
  H     -0.697323    3.336564    1.527717
  H     -1.520496    2.059136    2.446687
  C     -3.144680    0.720288    0.161598
  H     -3.432756    0.709722    1.219807
  H     -3.887248    1.321720   -0.374189
  C      1.787636   -1.042026    1.001372
  P     -1.484414   -1.469966    0.216463
  H     -2.382409   -3.625079   -0.568542
  H     -0.624918   -3.689033   -0.270965
  H     -1.236340   -2.863867   -1.723131
  C     -3.065590   -0.710530   -0.380679
  C     -1.439182   -3.076884   -0.670420
  C     -1.931261   -2.000447    1.926464
  H     -2.988264   -0.701756   -1.472521
  H     -3.935017   -1.311110   -0.088429
  H     -1.104361   -2.563780    2.366010
  H     -2.827619   -2.630913    1.925421
  H     -2.109292   -1.117280    2.546403

----------------------------
CARTESIAN COORDINATES (A.U.)
----------------------------
  NO LB      ZA    FRAG     MASS         X           Y           Z
   0 C     6.0000    0    12.011    3.708092    2.322428    0.942525
   1 C     6.0000    0    12.011    3.021893    0.540241    2.912414
   2 C     6.0000    0    12.011    4.140382   -1.750759   -0.696889
   3 C     6.0000    0    12.011    4.347409    0.931883   -1.269497
   4 C     6.0000    0    12.011    3.932989    5.128615    1.256623
   5 H     1.0000    0     1.008    2.711243    5.820442    2.771049
   6 H     1.0000    0     1.008    3.441220    6.132284   -0.481319
   7 H     1.0000    0     1.008    5.881370    5.644204    1.752999
   8 C     6.0000    0    12.011    5.180454    1.987251   -3.757278
   9 H     1.0000    0     1.008    4.792327    4.012735   -3.877503
  10 H     1.0000    0     1.008    4.182049    1.055958   -5.310030
  11 H     1.0000    0     1.008    7.219727    1.706409   -4.022329
  12 C     6.0000    0    12.011    4.775793   -3.846248   -2.489187
  13 H     1.0000    0     1.008    6.829230   -4.033280   -2.734148
  14 H     1.0000    0     1.008    3.931280   -3.490111   -4.343458
  15 H     1.0000    0     1.008    4.053151   -5.656598   -1.801395
  16 C     6.0000    0    12.011    3.243855   -4.375907    3.378932
  17 H     1.0000    0     1.008    5.124814   -4.870357    4.103160
  18 H     1.0000    0     1.008    2.586634   -5.956953    2.221541
  19 H     1.0000    0     1.008    1.984379   -4.190313    5.005117
  20 C     6.0000    0    12.011    2.533202    1.169812    5.631091
  21 H     1.0000    0     1.008    4.301128    1.223382    6.721896
  22 H     1.0000    0     1.008    1.292032   -0.229972    6.510590
  23 H     1.0000    0     1.008    1.628167    3.017666    5.820460
  24 Ru   16.0000*   0   101.070    0.391644   -0.010479   -0.225306
  25 Cl   17.0000    0    35.453   -0.811721   -0.464822   -4.688033
  26 P    15.0000    0    30.974   -2.753125    2.887910    0.129597
  27 C     6.0000    0    12.011   -3.119484    5.173724   -2.465756
  28 H     1.0000    0     1.008   -3.218542    4.118407   -4.237902
  29 H     1.0000    0     1.008   -1.442341    6.382206   -2.529092
  30 H     1.0000    0     1.008   -4.805198    6.351173   -2.220526
  31 C     6.0000    0    12.011   -2.927309    5.010904    2.887861
  32 H     1.0000    0     1.008   -4.672119    6.125727    2.847018
  33 H     1.0000    0     1.008   -1.317749    6.305192    2.886967
  34 H     1.0000    0     1.008   -2.873321    3.891203    4.623568
  35 C     6.0000    0    12.011   -5.942584    1.361147    0.305376
  36 H     1.0000    0     1.008   -6.486969    1.341180    2.305101
  37 H     1.0000    0     1.008   -7.345834    2.497689   -0.707115
  38 C     6.0000    0    12.011    3.378142   -1.969144    1.892319
  39 P    15.0000    0    30.974   -2.805136   -2.777833    0.409056
  40 H     1.0000    0     1.008   -4.502101   -6.850407   -1.074389
  41 H     1.0000    0     1.008   -1.180924   -6.971262   -0.512050
  42 H     1.0000    0     1.008   -2.336344   -5.411924   -3.256246
  43 C     6.0000    0    12.011   -5.793126   -1.342707   -0.719379
  44 C     6.0000    0    12.011   -2.719660   -5.814468   -1.266910
  45 C     6.0000    0    12.011   -3.649554   -3.780297    3.640489
  46 H     1.0000    0     1.008   -5.647001   -1.326127   -2.782661
  47 H     1.0000    0     1.008   -7.436104   -2.477639   -0.167107
  48 H     1.0000    0     1.008   -2.086940   -4.844842    4.471111
  49 H     1.0000    0     1.008   -5.343426   -4.971705    3.638518
  50 H     1.0000    0     1.008   -3.985984   -2.111353    4.812004
* core charge reduced due to ECP

--------------------------------
INTERNAL COORDINATES (ANGSTROEM)
--------------------------------
 C      0   0   0     0.000000000000     0.00000000     0.00000000
 C      1   0   0     1.451868011801     0.00000000     0.00000000
 C      1   2   0     2.334709956523    72.03736279     0.00000000
 C      1   2   3     1.423416614373   108.30536822     0.99186863
 C      1   2   3     1.498974997246   125.71450130   186.10012122
 H      5   1   2     1.092821370674   111.48258670   332.58094546
 H      5   1   2     1.093443217314   111.65604889   211.34949665
 H      5   1   2     1.098397946104   110.31113232    91.63995104
 C      4   1   2     1.496441638235   126.90870027   180.30660317
 H      9   4   1     1.093193816550   111.20862433   345.26169298
 H      9   4   1     1.094150808349   110.50695045   225.46399737
 H      9   4   1     1.098314922996   110.56608239   105.29897135
 C      3   1   2     1.497408016373   160.22580427   185.92263169
 H     13   3   1     1.098803065402   111.31462369    67.98044898
 H     13   3   1     1.094560237197   110.40336559   307.70245955
 H     13   3   1     1.093828358632   111.05819004   188.13377531
 C      3   1   2     2.608982223499    99.58829371   354.42630464
 H     17   3   1     1.098217655772   104.50942137   261.72676816
 H     17   3   1     1.093644546339    90.12582841   153.55385774
 H     17   3   1     1.092876148857   135.56069201    36.60110030
 C      2   1   3     1.499205333864   125.99989216   170.90422616
 H     21   2   1     1.099655966956   111.26591449   275.00922079
 H     21   2   1     1.093928326755   111.18381507   154.89277572
 H     21   2   1     1.093428195557   111.23717134    34.89837035
 Ru     2   1   3     2.186135443358    72.57285429   298.65886170
 Cl    25   2   1     2.457709906063   155.20490977    43.61862651
 P     25   2   1     2.270915281108   108.28324077   276.47132528
 C     27  25   2     1.840367577949   117.34763191   118.47708974
 H     28  27  25     1.092723023873   108.03509549    51.72126822
 H     28  27  25     1.094418453469   108.75271875   294.57753028
 H     28  27  25     1.095812410416   111.78326537   173.73350828
 C     27  25   2     1.844200323169   120.89810995   354.95778148
 H     32  27  25     1.095903229344   110.75833146   186.42516683
 H     32  27  25     1.092960944754   110.02617034    66.32527867
 H     32  27  25     1.093404260633   109.47728610   307.00366933
 C     27  25   2     1.873507862281   111.90163552   237.27065555
 H     36  27  25     1.096770582124   106.77890217   100.25074135
 H     36  27  25     1.095534296413   110.46271035   216.73657598
 C      3   1   2     1.432956855665    72.03576268   358.16785475
 P     25   2   1     2.262507535216   116.72027651   185.25356619
 H     40  25   2     2.463156493774   142.33635759   244.51048388
 H     41  40  25     1.783652656805    67.60297736    46.74138329
 H     42  41  40     1.778629214085    60.55642386   284.94816856
 C     36  27  25     1.532174834003   109.79380307   340.73630087
 C     43  42  41     1.093033196556    35.61449590    35.11756263
 C     40  25   2     1.845314540335   120.30588536    16.80375395
 H     44  36  27     1.094611915848   110.43789331   285.44929129
 H     44  36  27     1.096362032920   112.10327020   163.63392148
 H     46  40  25     1.092844163184   109.73511792   294.95209917
 H     46  40  25     1.095876876829   111.25807992   174.45767310
 H     46  40  25     1.093619381033   109.42470283    53.46592860

---------------------------
INTERNAL COORDINATES (A.U.)
---------------------------
 C      0   0   0     0.000000000000     0.00000000     0.00000000
 C      1   0   0     2.743632924904     0.00000000     0.00000000
 C      1   2   0     4.411962419968    72.03736279     0.00000000
 C      1   2   3     2.689867575638   108.30536822     0.99186863
 C      1   2   3     2.832652226391   125.71450130   186.10012122
 H      5   1   2     2.065133103870   111.48258670   332.58094546
 H      5   1   2     2.066308223718   111.65604889   211.34949665
 H      5   1   2     2.075671304199   110.31113232    91.63995104
 C      4   1   2     2.827864871660   126.90870027   180.30660317
 H      9   4   1     2.065836924576   111.20862433   345.26169298
 H      9   4   1     2.067645376988   110.50695045   225.46399737
 H      9   4   1     2.075514413261   110.56608239   105.29897135
 C      3   1   2     2.829691061684   160.22580427   185.92263169
 H     13   3   1     2.076436868723   111.31462369    67.98044898
 H     13   3   1     2.068419085382   110.40336559   307.70245955
 H     13   3   1     2.067036035331   111.05819004   188.13377531
 C      3   1   2     4.930261890681    99.58829371   354.42630464
 H     17   3   1     2.075330604847   104.50942137   261.72676816
 H     17   3   1     2.066688680437    90.12582841   153.55385774
 H     17   3   1     2.065236619634   135.56069201    36.60110030
 C      2   1   3     2.833087499516   125.99989216   170.90422616
 H     21   2   1     2.078048619078   111.26591449   275.00922079
 H     21   2   1     2.067224947707   111.18381507   154.89277572
 H     21   2   1     2.066279836711   111.23717134    34.89837035
 Ru     2   1   3     4.131197279606    72.57285429   298.65886170
 Cl    25   2   1     4.644398639085   155.20490977    43.61862651
 P     25   2   1     4.291407954631   108.28324077   276.47132528
 C     27  25   2     3.477790708072   117.34763191   118.47708974
 H     28  27  25     2.064947255350   108.03509549    51.72126822
 H     28  27  25     2.068151152966   108.75271875   294.57753028
 H     28  27  25     2.070785349839   111.78326537   173.73350828
 C     27  25   2     3.485033546878   120.89810995   354.95778148
 H     32  27  25     2.070956972740   110.75833146   186.42516683
 H     32  27  25     2.065396860656   110.02617034    66.32527867
 H     32  27  25     2.066234606259   109.47728610   307.00366933
 C     27  25   2     3.540416769459   111.90163552   237.27065555
 H     36  27  25     2.072596031956   106.77890217   100.25074135
 H     36  27  25     2.070259790539   110.46271035   216.73657598
 C      3   1   2     2.707896018931    72.03576268   358.16785475
 P     25   2   1     4.275519617492   116.72027651   185.25356619
 H     40  25   2     4.654691198222   142.33635759   244.51048388
 H     41  40  25     3.370615039402    67.60297736    46.74138329
 H     42  41  40     3.361122108412    60.55642386   284.94816856
 C     36  27  25     2.895390825552   109.79380307   340.73630087
 C     43  42  41     2.065533396776    35.61449590    35.11756263
 C     40  25   2     3.487139112176   120.30588536    16.80375395
 H     44  36  27     2.068516743879   110.43789331   285.44929129
 H     44  36  27     2.071823985848   112.10327020   163.63392148
 H     46  40  25     2.065176175472   109.73511792   294.95209917
 H     46  40  25     2.070907173704   111.25807992   174.45767310
 H     46  40  25     2.066641124901   109.42470283    53.46592860

---------------------
BASIS SET INFORMATION
---------------------
There are 5 groups of distinct atoms

 Group   1 Type C   : 12s6p3d1f contracted to 6s3p3d1f pattern {621111/411/111/1}
 Group   2 Type H   : 5s3p1d contracted to 3s3p1d pattern {311/111/1}
 Group   3 Type Ru  : 7s7p5d2f1g contracted to 6s4p3d2f1g pattern {211111/4111/311/11/1}
 Group   4 Type Cl  : 15s10p4d1f contracted to 6s6p4d1f pattern {732111/511111/1111/1}
 Group   5 Type P   : 15s9p4d1f contracted to 6s5p4d1f pattern {732111/51111/1111/1}

Atom   0C    basis set group =>   1
Atom   1C    basis set group =>   1
Atom   2C    basis set group =>   1
Atom   3C    basis set group =>   1
Atom   4C    basis set group =>   1
Atom   5H    basis set group =>   2
Atom   6H    basis set group =>   2
Atom   7H    basis set group =>   2
Atom   8C    basis set group =>   1
Atom   9H    basis set group =>   2
Atom  10H    basis set group =>   2
Atom  11H    basis set group =>   2
Atom  12C    basis set group =>   1
Atom  13H    basis set group =>   2
Atom  14H    basis set group =>   2
Atom  15H    basis set group =>   2
Atom  16C    basis set group =>   1
Atom  17H    basis set group =>   2
Atom  18H    basis set group =>   2
Atom  19H    basis set group =>   2
Atom  20C    basis set group =>   1
Atom  21H    basis set group =>   2
Atom  22H    basis set group =>   2
Atom  23H    basis set group =>   2
Atom  24Ru   basis set group =>   3
Atom  25Cl   basis set group =>   4
Atom  26P    basis set group =>   5
Atom  27C    basis set group =>   1
Atom  28H    basis set group =>   2
Atom  29H    basis set group =>   2
Atom  30H    basis set group =>   2
Atom  31C    basis set group =>   1
Atom  32H    basis set group =>   2
Atom  33H    basis set group =>   2
Atom  34H    basis set group =>   2
Atom  35C    basis set group =>   1
Atom  36H    basis set group =>   2
Atom  37H    basis set group =>   2
Atom  38C    basis set group =>   1
Atom  39P    basis set group =>   5
Atom  40H    basis set group =>   2
Atom  41H    basis set group =>   2
Atom  42H    basis set group =>   2
Atom  43C    basis set group =>   1
Atom  44C    basis set group =>   1
Atom  45C    basis set group =>   1
Atom  46H    basis set group =>   2
Atom  47H    basis set group =>   2
Atom  48H    basis set group =>   2
Atom  49H    basis set group =>   2
Atom  50H    basis set group =>   2
----------------------------------
AUXILIARY/JK BASIS SET INFORMATION
----------------------------------
There are 5 groups of distinct atoms

 Group   1 Type C   : 14s10p6d2f1g contracted to 10s8p5d1f1g pattern {5111111111/31111111/21111/2/1}
 Group   2 Type H   : 4s2p2d contracted to 2s2p2d pattern {31/11/11}
 Group   3 Type Ru  : 13s12p10d9f6g3h2i contracted to 11s10p9d8f6g3h2i pattern {31111111111/3111111111/211111111/21111111/111111/111/11}
 Group   4 Type Cl  : 16s12p10d4f1g contracted to 13s11p9d4f1g pattern {4111111111111/21111111111/211111111/1111/1}
 Group   5 Type P   : 16s12p10d4f1g contracted to 13s11p9d4f1g pattern {4111111111111/21111111111/211111111/1111/1}

Atom   0C    basis set group =>   1
Atom   1C    basis set group =>   1
Atom   2C    basis set group =>   1
Atom   3C    basis set group =>   1
Atom   4C    basis set group =>   1
Atom   5H    basis set group =>   2
Atom   6H    basis set group =>   2
Atom   7H    basis set group =>   2
Atom   8C    basis set group =>   1
Atom   9H    basis set group =>   2
Atom  10H    basis set group =>   2
Atom  11H    basis set group =>   2
Atom  12C    basis set group =>   1
Atom  13H    basis set group =>   2
Atom  14H    basis set group =>   2
Atom  15H    basis set group =>   2
Atom  16C    basis set group =>   1
Atom  17H    basis set group =>   2
Atom  18H    basis set group =>   2
Atom  19H    basis set group =>   2
Atom  20C    basis set group =>   1
Atom  21H    basis set group =>   2
Atom  22H    basis set group =>   2
Atom  23H    basis set group =>   2
Atom  24Ru   basis set group =>   3
Atom  25Cl   basis set group =>   4
Atom  26P    basis set group =>   5
Atom  27C    basis set group =>   1
Atom  28H    basis set group =>   2
Atom  29H    basis set group =>   2
Atom  30H    basis set group =>   2
Atom  31C    basis set group =>   1
Atom  32H    basis set group =>   2
Atom  33H    basis set group =>   2
Atom  34H    basis set group =>   2
Atom  35C    basis set group =>   1
Atom  36H    basis set group =>   2
Atom  37H    basis set group =>   2
Atom  38C    basis set group =>   1
Atom  39P    basis set group =>   5
Atom  40H    basis set group =>   2
Atom  41H    basis set group =>   2
Atom  42H    basis set group =>   2
Atom  43C    basis set group =>   1
Atom  44C    basis set group =>   1
Atom  45C    basis set group =>   1
Atom  46H    basis set group =>   2
Atom  47H    basis set group =>   2
Atom  48H    basis set group =>   2
Atom  49H    basis set group =>   2
Atom  50H    basis set group =>   2
-------------------------
ECP PARAMETER INFORMATION
-------------------------

 Group 1, Type Ru ECP Def2-ECP (replacing 28 core electrons, lmax=3)

Atom  24Ru   ECP group =>   1



           ************************************************************
           *        Program running with 24 parallel MPI-processes    *
           *              working on a common directory               *
           ************************************************************
------------------------------------------------------------------------------
                           ORCA GTO INTEGRAL CALCULATION
------------------------------------------------------------------------------

                         BASIS SET STATISTICS AND STARTUP INFO

 # of primitive gaussian shells          ...  741
 # of primitive gaussian functions       ... 1707
 # of contracted shells                  ...  490
 # of contracted basis functions         ... 1322
 Highest angular momentum                ...    4
 Maximum contraction depth               ...    7
 Integral package used                   ... LIBINT
 Integral threshhold            Thresh   ...  1.000e-10
 Primitive cut-off              TCut     ...  1.000e-11


------------------------------ INTEGRAL EVALUATION ----------------------------


 * One electron integrals 

   ECP integrals                         ... done
 Pre-screening matrix                    ... done
 Shell pair data                         ... done (   0.029 sec)



           ************************************************************
           *        Program running with 24 parallel MPI-processes    *
           *              working on a common directory               *
           ************************************************************
-------------------------------------------------------------------------------
                                 ORCA SCF
-------------------------------------------------------------------------------

------------
SCF SETTINGS
------------
Hamiltonian:
 Density Functional     Method          .... DFT(GTOs)
 Exchange Functional    Exchange        .... WB97M-V
 Correlation Functional Correlation     .... WB97M-V
 Gradients option       PostSCFGGA      .... off
 Hybrid DFT is turned on
   Fraction HF Exchange ScalHFX         ....  0.150000
   Scaling of DF-GGA-X  ScalDFX         ....  0.000000
   Scaling of DF-GGA-C  ScalDFC         ....  1.000000
   Scaling of DF-LDA-C  ScalLDAC        ....  1.000000
   Perturbative correction              ....  0.000000
   Density functional embedding theory  .... OFF
 Long-range corrected/Screened/Range-Separated Hybrid DFT is turned on
   Amount of maximum screened exact exchange              ....  0.850000
   Range separation parameter mu (erf(mu*r12)/r12)        ....  0.300000
   NL short-range parameter             ....  6.000000
   NL long-range parameter              ....  0.010000


General Settings:
 Integral files         IntName         .... MOR33_pr28
 Hartree-Fock type      HFTyp           .... RHF
 Total Charge           Charge          ....    0
 Multiplicity           Mult            ....    1
 Number of Electrons    NEL             ....  190
 Basis Dimension        Dim             .... 1322
 Nuclear Repulsion      ENuc            ....   2632.2381876203 Eh

Convergence Acceleration:
 DIIS                   CNVDIIS         .... on
   Start iteration      DIISMaxIt       ....    12
   Startup error        DIISStart       ....  0.200000
   # of expansion vecs  DIISMaxEq       ....     5
   Bias factor          DIISBfac        ....   1.050
   Max. coefficient     DIISMaxC        ....  10.000
 Newton-Raphson         CNVNR           .... off
 SOSCF                  CNVSOSCF        .... off
 Level Shifting         CNVShift        .... on
   Level shift para.    LevelShift      ....    0.2500
   Turn off err/grad.   ShiftErr        ....    0.0010
 Zerner damping         CNVZerner       .... off
 Static damping         CNVDamp         .... on
   Fraction old density DampFac         ....    0.7000
   Max. Damping (<1)    DampMax         ....    0.9800
   Min. Damping (>=0)   DampMin         ....    0.0000
   Turn off err/grad.   DampErr         ....    0.1000
 Fernandez-Rico         CNVRico         .... off

SCF Procedure:
 Maximum # iterations   MaxIter         ....   125
 SCF integral mode      SCFMode         .... Direct
   Integral package                     .... LIBINT
 Reset frequency        DirectResetFreq ....    20
 Integral Threshold     Thresh          ....  1.000e-10 Eh
 Primitive CutOff       TCut            ....  1.000e-11 Eh

Convergence Tolerance:
 Convergence Check Mode ConvCheckMode   .... Total+1el-Energy
 Convergence forced     ConvForced      .... 0
 Energy Change          TolE            ....  1.000e-06 Eh
 1-El. energy change                    ....  1.000e-03 Eh
 DIIS Error             TolErr          ....  1.000e-06


Diagonalization of the overlap matrix:
Smallest eigenvalue                        ... 1.665e-07
Time for diagonalization                   ...    0.270 sec
Threshold for overlap eigenvalues          ... 1.000e-08
Number of eigenvalues below threshold      ... 0
Time for construction of square roots      ...    0.209 sec
Total time needed                          ...    0.488 sec

-------------------
DFT GRID GENERATION
-------------------

General Integration Accuracy     IntAcc      ...  4.670
Radial Grid Type                 RadialGrid  ... Gauss-Chebyshev
Angular Grid (max. acc.)         AngularGrid ... Lebedev-302
Angular grid pruning method      GridPruning ... 3 (G Style)
Weight generation scheme         WeightScheme... Becke
Basis function cutoff            BFCut       ...    1.0000e-10
Integration weight cutoff        WCut        ...    1.0000e-14
Grids for H and He will be reduced by one unit

# of grid points (after initial pruning)     ... 235550 (   0.0 sec)
# of grid points (after weights+screening)   ... 198938 (   0.4 sec)
nearest neighbour list constructed           ...    0.0 sec
Grid point re-assignment to atoms done       ...    0.0 sec
Grid point division into batches done        ...    0.6 sec
Reduced shell lists constructed in    0.9 sec

Total number of grid points                  ...   198938
Total number of batches                      ...     3133
Average number of points per batch           ...       63
Average number of grid points per atom       ...     3901
Average number of shells per batch           ...   291.39 (59.47%)
Average number of basis functions per batch  ...   781.57 (59.12%)
Average number of large shells per batch     ...   217.43 (74.62%)
Average number of large basis fcns per batch ...   586.87 (75.09%)
Maximum spatial batch extension              ...   5.52,  3.39,  3.31 au
Average spatial batch extension              ...   0.05,  0.05,  0.05 au

Time for grid setup =    1.334 sec

------------------------------
INITIAL GUESS: MODEL POTENTIAL
------------------------------
Loading Hartree-Fock densities                     ... done
  calling /sw/apps/orca/orca_4_2_0_linux_x86-64_openmpi314/orca MOR33_pr28_atom44.inp > MOR33_pr28_atom44.out in order to generate an atomic fitting density for atom 24 (Ru with ECP) on-the-fly... 
    atom 24 (Ru), assumed electronic state with S=5: 1s2 2s2 2p6 3s2 3p6 4s2 3d10 4p6 5s2 4d6           ... done
Calculating cut-offs                               ... done
Setting up the integral package                    ... done
Initializing the effective Hamiltonian             ... done
Starting the Coulomb interaction                   ... done (   0.4 sec)
Reading the grid                                   ... done
Mapping shells                                     ... done
Starting the XC term evaluation                    ... done (   1.1 sec)
  promolecular density results
     # of electrons  =    217.983829442
     EX              =   -292.337545535
     EC              =     -8.362061904
     EX+EC           =   -300.699607439
Transforming the Hamiltonian                       ... done (   0.1 sec)
Diagonalizing the Hamiltonian                      ... done (   0.2 sec)
Back transforming the eigenvectors                 ... done (   0.1 sec)
Now organizing SCF variables                       ... done
                      ------------------
                      INITIAL GUESS DONE (   4.7 sec)
                      ------------------
--------------
SCF ITERATIONS
--------------
ITER       Energy         Delta-E        Max-DP      RMS-DP      [F,P]     Damp
               ***  Starting incremental Fock matrix formation  ***
  0  -1866.1651400583   0.000000000000 1.56421001  0.00458713  0.4241700 0.7000
  1  -1866.4521567141  -0.287016655879 1.02082577  0.00336089  0.3077556 0.7000
  2  -1866.5996334521  -0.147476737923 0.67112295  0.00224369  0.2197107 0.7000
                               ***Turning on DIIS***
  3  -1866.6860557614  -0.086422309360 0.39895963  0.00155086  0.1541734 0.7000
  4  -1866.7435641220  -0.057508360572 0.27646059  0.00120752  0.1074802 0.7000
  5  -1866.7836380650  -0.040073943022 0.65854104  0.00278113  0.0756404 0.0000
  6  -1866.8776530707  -0.094015005659 0.16138854  0.00050525  0.0031992 0.0000
  7  -1866.8778700471  -0.000216976383 0.31460998  0.00087698  0.0017716 0.0000
  8  -1866.8779493190  -0.000079271904 0.46970579  0.00098166  0.0012476 0.0000
  9  -1866.8779826835  -0.000033364513 0.55641316  0.00118269  0.0007592 0.0000
 10  -1866.8779962536  -0.000013570114 0.35267969  0.00091181  0.0005511 0.0000
 11  -1866.8779975486  -0.000001295019 0.20724638  0.00055804  0.0005298 0.0000
 12  -1866.8779982400  -0.000000691422 0.61812034  0.00138501  0.0001444 0.0000
 13  -1866.8779980712   0.000000168797 0.26938213  0.00083254  0.0000704 0.0000
                 **** Energy Check signals convergence ****

               *****************************************************
               *                     SUCCESS                       *
               *           SCF CONVERGED AFTER  14 CYCLES          *
               *****************************************************


Setting up the DFT-NL grid :

General Integration Accuracy     IntAcc      ...  4.340
Radial Grid Type                 RadialGrid  ... Gauss-Chebyshev
Angular Grid (max. acc.)         AngularGrid ... Lebedev-110
Angular grid pruning method      GridPruning ... 3 (G Style)
Weight generation scheme         WeightScheme... Becke
Basis function cutoff            BFCut       ...    1.0000e-10
Integration weight cutoff        WCut        ...    1.0000e-14
Grids for H and He will be reduced by one unit

# of grid points (after initial pruning)     ...  59846 (   0.0 sec)
# of grid points (after weights+screening)   ...  51779 (   0.1 sec)
nearest neighbour list constructed           ...    0.0 sec
Grid point re-assignment to atoms done       ...    0.0 sec
Grid point division into batches done        ...    0.0 sec
Reduced shell lists constructed in    0.1 sec

Total number of grid points                  ...    51779
Total number of batches                      ...      835
Average number of points per batch           ...       62
Average number of grid points per atom       ...     1015
Average number of shells per batch           ...   295.83 (60.37%)
Average number of basis functions per batch  ...   796.67 (60.26%)
Average number of large shells per batch     ...   223.78 (75.64%)
Average number of large basis fcns per batch ...   606.33 (76.11%)
Maximum spatial batch extension              ...   4.65,  2.88,  3.59 au
Average spatial batch extension              ...   0.08,  0.07,  0.07 au

Final grid set up in    0.2 sec

-------------------------------------------------------------------------------
                         DFT-NL dispersion correction                          
-------------------------------------------------------------------------------

SC Energy -1866.877997996 
NL    Energy 0.679805943 
SC+NL Energy -1866.198192053 
NL done in    1.1 sec
-------------------------------------------------------------------------------

----------------
TOTAL SCF ENERGY
----------------

Total Energy       :        -1866.19819205 Eh          -50781.83450 eV

Components:
Nuclear Repulsion  :         2632.23818762 Eh           71626.84252 eV
Electronic Energy  :        -4498.43637967 Eh         -122408.67703 eV
One Electron Energy:        -7837.62154322 Eh         -213272.52476 eV
Two Electron Energy:         3339.18516354 Eh           90863.84773 eV

Virial components:
Potential Energy   :        -3667.06260661 Eh          -99785.84654 eV
Kinetic Energy     :         1800.86441456 Eh           49004.01204 eV
Virial Ratio       :            2.03627912


DFT components:
N(Alpha)           :       94.999667444294 electrons
N(Beta)            :       94.999667444294 electrons
N(Total)           :      189.999334888588 electrons
E(X)               :     -125.883967711309 Eh       
E(C)               :       -6.397267053067 Eh       
NL Energy, E(C,NL) :        0.679805942897 Eh       
E(XC)              :     -131.601428821479 Eh       
DFET-embed. en.    :        0.000000000000 Eh       

---------------
SCF CONVERGENCE
---------------

  Last Energy change         ...    7.5095e-08  Tolerance :   1.0000e-06
  Last MAX-Density change    ...    3.0818e-01  Tolerance :   1.0000e-05
  Last RMS-Density change    ...    6.1142e-04  Tolerance :   1.0000e-06
  Last DIIS Error            ...    4.4043e-05  Tolerance :   1.0000e-06

             **** THE GBW FILE WAS UPDATED (MOR33_pr28.gbw) ****
             **** DENSITY FILE WAS UPDATED (MOR33_pr28.scfp) ****
             **** ENERGY FILE WAS UPDATED (MOR33_pr28.en.tmp) ****
             **** THE GBW FILE WAS UPDATED (MOR33_pr28.gbw) ****
             **** DENSITY FILE WAS UPDATED (MOR33_pr28.scfp) ****
----------------
ORBITAL ENERGIES
----------------

  NO   OCC          E(Eh)            E(eV) 
   0   2.0000    -101.772326     -2769.3658 
   1   2.0000     -77.388900     -2105.8590 
   2   2.0000     -77.388181     -2105.8395 
   3   2.0000     -10.363294      -281.9996 
   4   2.0000     -10.359841      -281.9056 
   5   2.0000     -10.354795      -281.7683 
   6   2.0000     -10.353903      -281.7440 
   7   2.0000     -10.352850      -281.7154 
   8   2.0000     -10.348878      -281.6073 
   9   2.0000     -10.345673      -281.5201 
  10   2.0000     -10.345569      -281.5173 
  11   2.0000     -10.345368      -281.5118 
  12   2.0000     -10.345324      -281.5106 
  13   2.0000     -10.343418      -281.4587 
  14   2.0000     -10.342348      -281.4296 
  15   2.0000     -10.335278      -281.2372 
  16   2.0000     -10.331852      -281.1440 
  17   2.0000     -10.328486      -281.0524 
  18   2.0000     -10.325936      -280.9830 
  19   2.0000      -9.545031      -259.7335 
  20   2.0000      -7.246563      -197.1890 
  21   2.0000      -7.243102      -197.0948 
  22   2.0000      -7.242963      -197.0910 
  23   2.0000      -6.734138      -183.2452 
  24   2.0000      -6.733725      -183.2340 
  25   2.0000      -4.847052      -131.8950 
  26   2.0000      -4.846593      -131.8825 
  27   2.0000      -4.846549      -131.8813 
  28   2.0000      -4.846195      -131.8717 
  29   2.0000      -4.843529      -131.7991 
  30   2.0000      -4.843143      -131.7886 
  31   2.0000      -3.117577       -84.8336 
  32   2.0000      -1.972682       -53.6794 
  33   2.0000      -1.948002       -53.0078 
  34   2.0000      -1.946372       -52.9635 
  35   2.0000      -1.009014       -27.4567 
  36   2.0000      -0.923483       -25.1293 
  37   2.0000      -0.901240       -24.5240 
  38   2.0000      -0.894973       -24.3535 
  39   2.0000      -0.880466       -23.9587 
  40   2.0000      -0.850009       -23.1299 
  41   2.0000      -0.840505       -22.8713 
  42   2.0000      -0.833910       -22.6918 
  43   2.0000      -0.830475       -22.5984 
  44   2.0000      -0.827711       -22.5232 
  45   2.0000      -0.814124       -22.1534 
  46   2.0000      -0.811197       -22.0738 
  47   2.0000      -0.748910       -20.3789 
  48   2.0000      -0.738597       -20.0983 
  49   2.0000      -0.731169       -19.8961 
  50   2.0000      -0.677926       -18.4473 
  51   2.0000      -0.637546       -17.3485 
  52   2.0000      -0.624332       -16.9890 
  53   2.0000      -0.623383       -16.9631 
  54   2.0000      -0.576118       -15.6770 
  55   2.0000      -0.571523       -15.5519 
  56   2.0000      -0.565658       -15.3923 
  57   2.0000      -0.557692       -15.1756 
  58   2.0000      -0.543877       -14.7997 
  59   2.0000      -0.538352       -14.6493 
  60   2.0000      -0.536618       -14.6021 
  61   2.0000      -0.532692       -14.4953 
  62   2.0000      -0.530538       -14.4367 
  63   2.0000      -0.526217       -14.3191 
  64   2.0000      -0.520893       -14.1742 
  65   2.0000      -0.516415       -14.0524 
  66   2.0000      -0.514401       -13.9976 
  67   2.0000      -0.508513       -13.8373 
  68   2.0000      -0.507759       -13.8168 
  69   2.0000      -0.502969       -13.6865 
  70   2.0000      -0.499415       -13.5898 
  71   2.0000      -0.495108       -13.4726 
  72   2.0000      -0.492604       -13.4044 
  73   2.0000      -0.490042       -13.3347 
  74   2.0000      -0.477879       -13.0038 
  75   2.0000      -0.472800       -12.8655 
  76   2.0000      -0.471023       -12.8172 
  77   2.0000      -0.469551       -12.7771 
  78   2.0000      -0.446634       -12.1535 
  79   2.0000      -0.436409       -11.8753 
  80   2.0000      -0.433230       -11.7888 
  81   2.0000      -0.428623       -11.6634 
  82   2.0000      -0.426603       -11.6085 
  83   2.0000      -0.420053       -11.4302 
  84   2.0000      -0.408153       -11.1064 
  85   2.0000      -0.387619       -10.5477 
  86   2.0000      -0.386991       -10.5306 
  87   2.0000      -0.380455       -10.3527 
  88   2.0000      -0.358813        -9.7638 
  89   2.0000      -0.354602        -9.6492 
  90   2.0000      -0.328420        -8.9368 
  91   2.0000      -0.323207        -8.7949 
  92   2.0000      -0.298709        -8.1283 
  93   2.0000      -0.279639        -7.6094 
  94   2.0000      -0.264814        -7.2060 
  95   0.0000       0.025252         0.6871 
  96   0.0000       0.033940         0.9235 
  97   0.0000       0.039425         1.0728 
  98   0.0000       0.041855         1.1389 
  99   0.0000       0.053523         1.4564 
 100   0.0000       0.056487         1.5371 
 101   0.0000       0.058082         1.5805 
 102   0.0000       0.059452         1.6178 
 103   0.0000       0.061690         1.6787 
 104   0.0000       0.076357         2.0778 
 105   0.0000       0.078908         2.1472 
 106   0.0000       0.080637         2.1942 
 107   0.0000       0.081258         2.2111 
 108   0.0000       0.083514         2.2725 
 109   0.0000       0.088009         2.3948 
 110   0.0000       0.092098         2.5061 
 111   0.0000       0.094678         2.5763 
 112   0.0000       0.098165         2.6712 
 113   0.0000       0.107859         2.9350 
 114   0.0000       0.109380         2.9764 
 115   0.0000       0.113451         3.0872 
 116   0.0000       0.115403         3.1403 
 117   0.0000       0.116899         3.1810 
 118   0.0000       0.119922         3.2632 
 119   0.0000       0.124827         3.3967 
 120   0.0000       0.126325         3.4375 
 121   0.0000       0.130714         3.5569 
 122   0.0000       0.134181         3.6513 
 123   0.0000       0.135893         3.6978 
 124   0.0000       0.138619         3.7720 
 125   0.0000       0.141350         3.8463 
 126   0.0000       0.142755         3.8846 
 127   0.0000       0.148295         4.0353 
 128   0.0000       0.155115         4.2209 
 129   0.0000       0.156679         4.2634 
 130   0.0000       0.157430         4.2839 
 131   0.0000       0.161838         4.4038 
 132   0.0000       0.163548         4.4504 
 133   0.0000       0.166774         4.5381 
 134   0.0000       0.171563         4.6685 
 135   0.0000       0.173765         4.7284 
 136   0.0000       0.177569         4.8319 
 137   0.0000       0.181683         4.9438 
 138   0.0000       0.187092         5.0910 
 139   0.0000       0.189481         5.1560 
 140   0.0000       0.190450         5.1824 
 141   0.0000       0.193055         5.2533 
 142   0.0000       0.197228         5.3668 
 143   0.0000       0.198815         5.4100 
 144   0.0000       0.202333         5.5058 
 145   0.0000       0.206131         5.6091 
 146   0.0000       0.208583         5.6758 
 147   0.0000       0.213282         5.8037 
 148   0.0000       0.215207         5.8561 
 149   0.0000       0.217005         5.9050 
 150   0.0000       0.219883         5.9833 
 151   0.0000       0.225708         6.1418 
 152   0.0000       0.228001         6.2042 
 153   0.0000       0.232754         6.3336 
 154   0.0000       0.235315         6.4033 
 155   0.0000       0.235605         6.4111 
 156   0.0000       0.237787         6.4705 
 157   0.0000       0.241823         6.5803 
 158   0.0000       0.244065         6.6414 
 159   0.0000       0.249338         6.7848 
 160   0.0000       0.252754         6.8778 
 161   0.0000       0.254741         6.9318 
 162   0.0000       0.257426         7.0049 
 163   0.0000       0.258230         7.0268 
 164   0.0000       0.259794         7.0694 
 165   0.0000       0.262310         7.1378 
 166   0.0000       0.265802         7.2328 
 167   0.0000       0.267320         7.2741 
 168   0.0000       0.269083         7.3221 
 169   0.0000       0.270555         7.3622 
 170   0.0000       0.275776         7.5042 
 171   0.0000       0.279247         7.5987 
 172   0.0000       0.282256         7.6806 
 173   0.0000       0.283066         7.7026 
 174   0.0000       0.285085         7.7575 
 175   0.0000       0.288616         7.8536 
 176   0.0000       0.290494         7.9048 
 177   0.0000       0.292707         7.9650 
 178   0.0000       0.296233         8.0609 
 179   0.0000       0.297232         8.0881 
 180   0.0000       0.297624         8.0987 
 181   0.0000       0.299321         8.1450 
 182   0.0000       0.301870         8.2143 
 183   0.0000       0.303059         8.2467 
 184   0.0000       0.305805         8.3214 
 185   0.0000       0.308430         8.3928 
 186   0.0000       0.309559         8.4235 
 187   0.0000       0.313749         8.5375 
 188   0.0000       0.314651         8.5621 
 189   0.0000       0.316281         8.6064 
 190   0.0000       0.318236         8.6596 
 191   0.0000       0.318814         8.6754 
 192   0.0000       0.321117         8.7380 
 193   0.0000       0.323538         8.8039 
 194   0.0000       0.326389         8.8815 
 195   0.0000       0.328472         8.9382 
 196   0.0000       0.330302         8.9880 
 197   0.0000       0.332260         9.0413 
 198   0.0000       0.335619         9.1327 
 199   0.0000       0.337713         9.1896 
 200   0.0000       0.338986         9.2243 
 201   0.0000       0.342214         9.3121 
 202   0.0000       0.344083         9.3630 
 203   0.0000       0.346542         9.4299 
 204   0.0000       0.347524         9.4566 
 205   0.0000       0.348923         9.4947 
 206   0.0000       0.349754         9.5173 
 207   0.0000       0.352345         9.5878 
 208   0.0000       0.355730         9.6799 
 209   0.0000       0.361105         9.8262 
 210   0.0000       0.362333         9.8596 
 211   0.0000       0.364296         9.9130 
 212   0.0000       0.366296         9.9674 
 213   0.0000       0.370003        10.0683 
 214   0.0000       0.371583        10.1113 
 215   0.0000       0.374340        10.1863 
 216   0.0000       0.375416        10.2156 
 217   0.0000       0.380050        10.3417 
 218   0.0000       0.381098        10.3702 
 219   0.0000       0.382825        10.4172 
 220   0.0000       0.384325        10.4580 
 221   0.0000       0.386790        10.5251 
 222   0.0000       0.389649        10.6029 
 223   0.0000       0.390147        10.6164 
 224   0.0000       0.394185        10.7263 
 225   0.0000       0.395979        10.7751 
 226   0.0000       0.400183        10.8895 
 227   0.0000       0.401822        10.9341 
 228   0.0000       0.403391        10.9768 
 229   0.0000       0.404074        10.9954 
 230   0.0000       0.407802        11.0969 
 231   0.0000       0.410284        11.1644 
 232   0.0000       0.411866        11.2075 
 233   0.0000       0.412678        11.2295 
 234   0.0000       0.414946        11.2913 
 235   0.0000       0.420732        11.4487 
 236   0.0000       0.424965        11.5639 
 237   0.0000       0.426131        11.5956 
 238   0.0000       0.428102        11.6493 
 239   0.0000       0.430273        11.7083 
 240   0.0000       0.434150        11.8138 
 241   0.0000       0.435068        11.8388 
 242   0.0000       0.437643        11.9089 
 243   0.0000       0.439141        11.9496 
 244   0.0000       0.441632        12.0174 
 245   0.0000       0.445306        12.1174 
 246   0.0000       0.447974        12.1900 
 247   0.0000       0.449328        12.2268 
 248   0.0000       0.452639        12.3169 
 249   0.0000       0.454343        12.3633 
 250   0.0000       0.456437        12.4203 
 251   0.0000       0.458707        12.4821 
 252   0.0000       0.462474        12.5846 
 253   0.0000       0.465565        12.6687 
 254   0.0000       0.467291        12.7156 
 255   0.0000       0.470043        12.7905 
 256   0.0000       0.472045        12.8450 
 257   0.0000       0.474688        12.9169 
 258   0.0000       0.476002        12.9527 
 259   0.0000       0.477935        13.0053 
 260   0.0000       0.481574        13.1043 
 261   0.0000       0.482761        13.1366 
 262   0.0000       0.487213        13.2577 
 263   0.0000       0.489882        13.3304 
 264   0.0000       0.491976        13.3873 
 265   0.0000       0.493288        13.4230 
 266   0.0000       0.496840        13.5197 
 267   0.0000       0.498762        13.5720 
 268   0.0000       0.502456        13.6725 
 269   0.0000       0.504689        13.7333 
 270   0.0000       0.506065        13.7707 
 271   0.0000       0.509248        13.8573 
 272   0.0000       0.510816        13.9000 
 273   0.0000       0.511522        13.9192 
 274   0.0000       0.514006        13.9868 
 275   0.0000       0.516933        14.0665 
 276   0.0000       0.519139        14.1265 
 277   0.0000       0.521042        14.1783 
 278   0.0000       0.523324        14.2404 
 279   0.0000       0.526204        14.3187 
 280   0.0000       0.532747        14.4968 
 281   0.0000       0.534847        14.5539 
 282   0.0000       0.536887        14.6094 
 283   0.0000       0.538659        14.6577 
 284   0.0000       0.539767        14.6878 
 285   0.0000       0.541391        14.7320 
 286   0.0000       0.544632        14.8202 
 287   0.0000       0.551349        15.0030 
 288   0.0000       0.554012        15.0754 
 289   0.0000       0.557747        15.1771 
 290   0.0000       0.558354        15.1936 
 291   0.0000       0.559982        15.2379 
 292   0.0000       0.563517        15.3341 
 293   0.0000       0.567463        15.4415 
 294   0.0000       0.570001        15.5105 
 295   0.0000       0.571537        15.5523 
 296   0.0000       0.574953        15.6453 
 297   0.0000       0.577300        15.7091 
 298   0.0000       0.579916        15.7803 
 299   0.0000       0.583789        15.8857 
 300   0.0000       0.585392        15.9293 
 301   0.0000       0.588709        16.0196 
 302   0.0000       0.591159        16.0863 
 303   0.0000       0.593100        16.1391 
 304   0.0000       0.595537        16.2054 
 305   0.0000       0.599869        16.3233 
 306   0.0000       0.603514        16.4225 
 307   0.0000       0.604094        16.4382 
 308   0.0000       0.609056        16.5733 
 309   0.0000       0.610563        16.6143 
 310   0.0000       0.613750        16.7010 
 311   0.0000       0.615716        16.7545 
 312   0.0000       0.618935        16.8421 
 313   0.0000       0.621562        16.9136 
 314   0.0000       0.623725        16.9724 
 315   0.0000       0.624941        17.0055 
 316   0.0000       0.629910        17.1407 
 317   0.0000       0.632675        17.2159 
 318   0.0000       0.636548        17.3213 
 319   0.0000       0.639061        17.3897 
 320   0.0000       0.641434        17.4543 
 321   0.0000       0.643692        17.5158 
 322   0.0000       0.648185        17.6380 
 323   0.0000       0.649368        17.6702 
 324   0.0000       0.651360        17.7244 
 325   0.0000       0.653428        17.7807 
 326   0.0000       0.657110        17.8809 
 327   0.0000       0.658096        17.9077 
 328   0.0000       0.663757        18.0618 
 329   0.0000       0.665576        18.1112 
 330   0.0000       0.666711        18.1421 
 331   0.0000       0.670838        18.2544 
 332   0.0000       0.674655        18.3583 
 333   0.0000       0.678084        18.4516 
 334   0.0000       0.678674        18.4676 
 335   0.0000       0.680987        18.5306 
 336   0.0000       0.683166        18.5899 
 337   0.0000       0.685526        18.6541 
 338   0.0000       0.686917        18.6920 
 339   0.0000       0.689679        18.7671 
 340   0.0000       0.693835        18.8802 
 341   0.0000       0.697034        18.9673 
 342   0.0000       0.699507        19.0345 
 343   0.0000       0.701830        19.0978 
 344   0.0000       0.702649        19.1201 
 345   0.0000       0.705613        19.2007 
 346   0.0000       0.707196        19.2438 
 347   0.0000       0.708254        19.2726 
 348   0.0000       0.713131        19.4053 
 349   0.0000       0.715813        19.4783 
 350   0.0000       0.718123        19.5411 
 351   0.0000       0.719235        19.5714 
 352   0.0000       0.722203        19.6521 
 353   0.0000       0.723360        19.6836 
 354   0.0000       0.726424        19.7670 
 355   0.0000       0.727324        19.7915 
 356   0.0000       0.728973        19.8364 
 357   0.0000       0.730612        19.8810 
 358   0.0000       0.732352        19.9283 
 359   0.0000       0.733326        19.9548 
 360   0.0000       0.734364        19.9831 
 361   0.0000       0.739244        20.1158 
 362   0.0000       0.739857        20.1325 
 363   0.0000       0.743480        20.2311 
 364   0.0000       0.745261        20.2796 
 365   0.0000       0.749019        20.3819 
 366   0.0000       0.750284        20.4163 
 367   0.0000       0.754692        20.5362 
 368   0.0000       0.756057        20.5734 
 369   0.0000       0.757319        20.6077 
 370   0.0000       0.761542        20.7226 
 371   0.0000       0.761728        20.7277 
 372   0.0000       0.762263        20.7422 
 373   0.0000       0.768494        20.9118 
 374   0.0000       0.770136        20.9565 
 375   0.0000       0.772163        21.0116 
 376   0.0000       0.774882        21.0856 
 377   0.0000       0.776903        21.1406 
 378   0.0000       0.778691        21.1893 
 379   0.0000       0.781615        21.2688 
 380   0.0000       0.782884        21.3034 
 381   0.0000       0.785591        21.3770 
 382   0.0000       0.788411        21.4537 
 383   0.0000       0.792014        21.5518 
 384   0.0000       0.795409        21.6442 
 385   0.0000       0.797579        21.7032 
 386   0.0000       0.801159        21.8006 
 387   0.0000       0.801737        21.8164 
 388   0.0000       0.803488        21.8640 
 389   0.0000       0.805005        21.9053 
 390   0.0000       0.808216        21.9927 
 391   0.0000       0.809202        22.0195 
 392   0.0000       0.813193        22.1281 
 393   0.0000       0.814853        22.1733 
 394   0.0000       0.818372        22.2690 
 395   0.0000       0.820145        22.3173 
 396   0.0000       0.823504        22.4087 
 397   0.0000       0.825479        22.4624 
 398   0.0000       0.829130        22.5618 
 399   0.0000       0.831072        22.6146 
 400   0.0000       0.834028        22.6950 
 401   0.0000       0.834243        22.7009 
 402   0.0000       0.837435        22.7878 
 403   0.0000       0.839428        22.8420 
 404   0.0000       0.844299        22.9746 
 405   0.0000       0.847547        23.0629 
 406   0.0000       0.850954        23.1556 
 407   0.0000       0.853607        23.2278 
 408   0.0000       0.854965        23.2648 
 409   0.0000       0.858796        23.3690 
 410   0.0000       0.860966        23.4281 
 411   0.0000       0.864419        23.5220 
 412   0.0000       0.865782        23.5591 
 413   0.0000       0.870372        23.6840 
 414   0.0000       0.871275        23.7086 
 415   0.0000       0.874660        23.8007 
 416   0.0000       0.876513        23.8511 
 417   0.0000       0.880613        23.9627 
 418   0.0000       0.883368        24.0377 
 419   0.0000       0.886358        24.1190 
 420   0.0000       0.891429        24.2570 
 421   0.0000       0.894074        24.3290 
 422   0.0000       0.894662        24.3450 
 423   0.0000       0.898546        24.4507 
 424   0.0000       0.900605        24.5067 
 425   0.0000       0.903514        24.5859 
 426   0.0000       0.905885        24.6504 
 427   0.0000       0.909360        24.7450 
 428   0.0000       0.911072        24.7915 
 429   0.0000       0.913623        24.8609 
 430   0.0000       0.917322        24.9616 
 431   0.0000       0.919157        25.0115 
 432   0.0000       0.920070        25.0364 
 433   0.0000       0.926167        25.2023 
 434   0.0000       0.931181        25.3387 
 435   0.0000       0.937233        25.5034 
 436   0.0000       0.938859        25.5476 
 437   0.0000       0.941070        25.6078 
 438   0.0000       0.944647        25.7052 
 439   0.0000       0.949267        25.8309 
 440   0.0000       0.949774        25.8447 
 441   0.0000       0.951809        25.9000 
 442   0.0000       0.960628        26.1400 
 443   0.0000       0.962617        26.1941 
 444   0.0000       0.968329        26.3496 
 445   0.0000       0.972369        26.4595 
 446   0.0000       0.976948        26.5841 
 447   0.0000       0.980425        26.6787 
 448   0.0000       0.984486        26.7892 
 449   0.0000       0.991410        26.9776 
 450   0.0000       0.991660        26.9845 
 451   0.0000       0.994656        27.0660 
 452   0.0000       0.995979        27.1020 
 453   0.0000       1.000189        27.2165 
 454   0.0000       1.006793        27.3962 
 455   0.0000       1.010854        27.5067 
 456   0.0000       1.016582        27.6626 
 457   0.0000       1.021120        27.7861 
 458   0.0000       1.023241        27.8438 
 459   0.0000       1.032468        28.0949 
 460   0.0000       1.036146        28.1950 
 461   0.0000       1.038919        28.2704 
 462   0.0000       1.042831        28.3769 
 463   0.0000       1.046692        28.4819 
 464   0.0000       1.050475        28.5849 
 465   0.0000       1.054018        28.6813 
 466   0.0000       1.060464        28.8567 
 467   0.0000       1.065741        29.0003 
 468   0.0000       1.066855        29.0306 
 469   0.0000       1.069545        29.1038 
 470   0.0000       1.074552        29.2400 
 471   0.0000       1.079176        29.3659 
 472   0.0000       1.084735        29.5171 
 473   0.0000       1.088824        29.6284 
 474   0.0000       1.095514        29.8105 
 475   0.0000       1.098529        29.8925 
 476   0.0000       1.103389        30.0247 
 477   0.0000       1.106320        30.1045 
 478   0.0000       1.108214        30.1560 
 479   0.0000       1.110710        30.2240 
 480   0.0000       1.118886        30.4464 
 481   0.0000       1.127259        30.6743 
 482   0.0000       1.129559        30.7369 
 483   0.0000       1.137003        30.9394 
 484   0.0000       1.140218        31.0269 
 485   0.0000       1.143450        31.1149 
 486   0.0000       1.150469        31.3059 
 487   0.0000       1.151918        31.3453 
 488   0.0000       1.157085        31.4859 
 489   0.0000       1.161446        31.6046 
 490   0.0000       1.164289        31.6819 
 491   0.0000       1.175976        31.9999 
 492   0.0000       1.178806        32.0769 
 493   0.0000       1.183838        32.2139 
 494   0.0000       1.189236        32.3608 
 495   0.0000       1.194353        32.5000 
 496   0.0000       1.196217        32.5507 
 497   0.0000       1.198986        32.6261 
 498   0.0000       1.205453        32.8020 
 499   0.0000       1.208409        32.8825 
 500   0.0000       1.209967        32.9249 
 501   0.0000       1.215148        33.0659 
 502   0.0000       1.227002        33.3884 
 503   0.0000       1.232089        33.5269 
 504   0.0000       1.234454        33.5912 
 505   0.0000       1.240279        33.7497 
 506   0.0000       1.241419        33.7807 
 507   0.0000       1.242285        33.8043 
 508   0.0000       1.252236        34.0751 
 509   0.0000       1.255041        34.1514 
 510   0.0000       1.259804        34.2810 
 511   0.0000       1.264876        34.4190 
 512   0.0000       1.269328        34.5402 
 513   0.0000       1.273994        34.6671 
 514   0.0000       1.279387        34.8139 
 515   0.0000       1.288258        35.0553 
 516   0.0000       1.291199        35.1353 
 517   0.0000       1.294093        35.2141 
 518   0.0000       1.299582        35.3634 
 519   0.0000       1.300848        35.3979 
 520   0.0000       1.308868        35.6161 
 521   0.0000       1.320986        35.9459 
 522   0.0000       1.325585        36.0710 
 523   0.0000       1.327072        36.1115 
 524   0.0000       1.333870        36.2964 
 525   0.0000       1.337034        36.3825 
 526   0.0000       1.337599        36.3979 
 527   0.0000       1.340640        36.4807 
 528   0.0000       1.345994        36.6263 
 529   0.0000       1.349826        36.7306 
 530   0.0000       1.355453        36.8838 
 531   0.0000       1.359764        37.0011 
 532   0.0000       1.365105        37.1464 
 533   0.0000       1.367707        37.2172 
 534   0.0000       1.373219        37.3672 
 535   0.0000       1.377166        37.4746 
 536   0.0000       1.379661        37.5425 
 537   0.0000       1.382897        37.6305 
 538   0.0000       1.386987        37.7418 
 539   0.0000       1.391108        37.8540 
 540   0.0000       1.393549        37.9204 
 541   0.0000       1.398423        38.0530 
 542   0.0000       1.403054        38.1790 
 543   0.0000       1.410830        38.3906 
 544   0.0000       1.412236        38.4289 
 545   0.0000       1.417876        38.5824 
 546   0.0000       1.421057        38.6689 
 547   0.0000       1.426581        38.8192 
 548   0.0000       1.428574        38.8735 
 549   0.0000       1.435367        39.0583 
 550   0.0000       1.436271        39.0829 
 551   0.0000       1.442630        39.2559 
 552   0.0000       1.444013        39.2936 
 553   0.0000       1.447886        39.3990 
 554   0.0000       1.450427        39.4681 
 555   0.0000       1.452922        39.5360 
 556   0.0000       1.458244        39.6808 
 557   0.0000       1.459530        39.7158 
 558   0.0000       1.464459        39.8500 
 559   0.0000       1.465729        39.8845 
 560   0.0000       1.470764        40.0215 
 561   0.0000       1.473511        40.0963 
 562   0.0000       1.474921        40.1347 
 563   0.0000       1.482821        40.3496 
 564   0.0000       1.485862        40.4324 
 565   0.0000       1.488459        40.5030 
 566   0.0000       1.491242        40.5788 
 567   0.0000       1.500615        40.8338 
 568   0.0000       1.503426        40.9103 
 569   0.0000       1.509125        41.0654 
 570   0.0000       1.510323        41.0980 
 571   0.0000       1.511158        41.1207 
 572   0.0000       1.517379        41.2900 
 573   0.0000       1.521082        41.3908 
 574   0.0000       1.525992        41.5243 
 575   0.0000       1.530382        41.6438 
 576   0.0000       1.532033        41.6887 
 577   0.0000       1.539399        41.8892 
 578   0.0000       1.541526        41.9471 
 579   0.0000       1.544232        42.0207 
 580   0.0000       1.548994        42.1503 
 581   0.0000       1.549478        42.1634 
 582   0.0000       1.554755        42.3070 
 583   0.0000       1.563189        42.5365 
 584   0.0000       1.567585        42.6562 
 585   0.0000       1.569624        42.7116 
 586   0.0000       1.572709        42.7956 
 587   0.0000       1.581067        43.0230 
 588   0.0000       1.581886        43.0453 
 589   0.0000       1.584418        43.1142 
 590   0.0000       1.587101        43.1872 
 591   0.0000       1.592314        43.3291 
 592   0.0000       1.599001        43.5110 
 593   0.0000       1.602908        43.6173 
 594   0.0000       1.606550        43.7164 
 595   0.0000       1.610736        43.8303 
 596   0.0000       1.613604        43.9084 
 597   0.0000       1.617036        44.0018 
 598   0.0000       1.623144        44.1680 
 599   0.0000       1.628313        44.3087 
 600   0.0000       1.631203        44.3873 
 601   0.0000       1.636906        44.5425 
 602   0.0000       1.647523        44.8314 
 603   0.0000       1.650555        44.9139 
 604   0.0000       1.654555        45.0227 
 605   0.0000       1.659916        45.1686 
 606   0.0000       1.664104        45.2826 
 607   0.0000       1.666496        45.3477 
 608   0.0000       1.671107        45.4731 
 609   0.0000       1.674229        45.5581 
 610   0.0000       1.679164        45.6924 
 611   0.0000       1.686205        45.8840 
 612   0.0000       1.688305        45.9411 
 613   0.0000       1.691597        46.0307 
 614   0.0000       1.694324        46.1049 
 615   0.0000       1.705445        46.4075 
 616   0.0000       1.708739        46.4971 
 617   0.0000       1.713134        46.6168 
 618   0.0000       1.714590        46.6564 
 619   0.0000       1.723925        46.9104 
 620   0.0000       1.726615        46.9836 
 621   0.0000       1.732880        47.1541 
 622   0.0000       1.741433        47.3868 
 623   0.0000       1.746270        47.5184 
 624   0.0000       1.754431        47.7405 
 625   0.0000       1.756904        47.8078 
 626   0.0000       1.760535        47.9066 
 627   0.0000       1.763002        47.9737 
 628   0.0000       1.764156        48.0051 
 629   0.0000       1.766359        48.0651 
 630   0.0000       1.776607        48.3439 
 631   0.0000       1.777320        48.3633 
 632   0.0000       1.785715        48.5918 
 633   0.0000       1.788094        48.6565 
 634   0.0000       1.791055        48.7371 
 635   0.0000       1.793258        48.7970 
 636   0.0000       1.802793        49.0565 
 637   0.0000       1.810135        49.2563 
 638   0.0000       1.811638        49.2972 
 639   0.0000       1.817136        49.4468 
 640   0.0000       1.821683        49.5705 
 641   0.0000       1.830016        49.7973 
 642   0.0000       1.832010        49.8515 
 643   0.0000       1.841461        50.1087 
 644   0.0000       1.843900        50.1751 
 645   0.0000       1.848162        50.2910 
 646   0.0000       1.849573        50.3294 
 647   0.0000       1.853774        50.4438 
 648   0.0000       1.858411        50.5699 
 649   0.0000       1.862344        50.6770 
 650   0.0000       1.868775        50.8519 
 651   0.0000       1.872400        50.9506 
 652   0.0000       1.877348        51.0852 
 653   0.0000       1.881919        51.2096 
 654   0.0000       1.887289        51.3558 
 655   0.0000       1.892880        51.5079 
 656   0.0000       1.902149        51.7601 
 657   0.0000       1.904896        51.8348 
 658   0.0000       1.911848        52.0240 
 659   0.0000       1.913102        52.0581 
 660   0.0000       1.919342        52.2280 
 661   0.0000       1.923015        52.3279 
 662   0.0000       1.929323        52.4996 
 663   0.0000       1.931553        52.5602 
 664   0.0000       1.935972        52.6805 
 665   0.0000       1.942607        52.8610 
 666   0.0000       1.946318        52.9620 
 667   0.0000       1.956783        53.2468 
 668   0.0000       1.959053        53.3085 
 669   0.0000       1.968234        53.5584 
 670   0.0000       1.968600        53.5683 
 671   0.0000       1.978554        53.8392 
 672   0.0000       1.983559        53.9754 
 673   0.0000       1.988734        54.1162 
 674   0.0000       1.991846        54.2009 
 675   0.0000       2.000647        54.4404 
 676   0.0000       2.005398        54.5697 
 677   0.0000       2.009833        54.6903 
 678   0.0000       2.017229        54.8916 
 679   0.0000       2.027862        55.1809 
 680   0.0000       2.041042        55.5396 
 681   0.0000       2.042159        55.5700 
 682   0.0000       2.043390        55.6035 
 683   0.0000       2.046430        55.6862 
 684   0.0000       2.049410        55.7673 
 685   0.0000       2.052904        55.8624 
 686   0.0000       2.063791        56.1586 
 687   0.0000       2.070535        56.3421 
 688   0.0000       2.074765        56.4572 
 689   0.0000       2.080522        56.6139 
 690   0.0000       2.087943        56.8158 
 691   0.0000       2.094076        56.9827 
 692   0.0000       2.100120        57.1472 
 693   0.0000       2.115165        57.5566 
 694   0.0000       2.118805        57.6556 
 695   0.0000       2.122937        57.7681 
 696   0.0000       2.126636        57.8687 
 697   0.0000       2.138320        58.1866 
 698   0.0000       2.155500        58.6541 
 699   0.0000       2.157027        58.6957 
 700   0.0000       2.157993        58.7220 
 701   0.0000       2.173418        59.1417 
 702   0.0000       2.176588        59.2280 
 703   0.0000       2.180229        59.3270 
 704   0.0000       2.185762        59.4776 
 705   0.0000       2.200950        59.8909 
 706   0.0000       2.217305        60.3359 
 707   0.0000       2.227450        60.6120 
 708   0.0000       2.241267        60.9880 
 709   0.0000       2.257310        61.4245 
 710   0.0000       2.265203        61.6393 
 711   0.0000       2.278590        62.0036 
 712   0.0000       2.280552        62.0570 
 713   0.0000       2.291972        62.3677 
 714   0.0000       2.293776        62.4168 
 715   0.0000       2.305358        62.7320 
 716   0.0000       2.312001        62.9128 
 717   0.0000       2.314655        62.9850 
 718   0.0000       2.321001        63.1577 
 719   0.0000       2.327076        63.3230 
 720   0.0000       2.338318        63.6289 
 721   0.0000       2.343728        63.7761 
 722   0.0000       2.347446        63.8773 
 723   0.0000       2.354504        64.0693 
 724   0.0000       2.363942        64.3261 
 725   0.0000       2.370898        64.5154 
 726   0.0000       2.373346        64.5820 
 727   0.0000       2.379665        64.7540 
 728   0.0000       2.386444        64.9384 
 729   0.0000       2.397920        65.2507 
 730   0.0000       2.404649        65.4338 
 731   0.0000       2.412658        65.6518 
 732   0.0000       2.432623        66.1950 
 733   0.0000       2.436026        66.2876 
 734   0.0000       2.441223        66.4291 
 735   0.0000       2.452333        66.7314 
 736   0.0000       2.456272        66.8386 
 737   0.0000       2.462304        67.0027 
 738   0.0000       2.470190        67.2173 
 739   0.0000       2.478068        67.4317 
 740   0.0000       2.488941        67.7275 
 741   0.0000       2.499821        68.0236 
 742   0.0000       2.501567        68.0711 
 743   0.0000       2.515221        68.4427 
 744   0.0000       2.520308        68.5811 
 745   0.0000       2.525665        68.7268 
 746   0.0000       2.530752        68.8653 
 747   0.0000       2.537155        69.0395 
 748   0.0000       2.545700        69.2720 
 749   0.0000       2.552196        69.4488 
 750   0.0000       2.560280        69.6688 
 751   0.0000       2.566229        69.8306 
 752   0.0000       2.572153        69.9918 
 753   0.0000       2.593623        70.5761 
 754   0.0000       2.597580        70.6838 
 755   0.0000       2.600503        70.7633 
 756   0.0000       2.613006        71.1035 
 757   0.0000       2.622001        71.3483 
 758   0.0000       2.658371        72.3379 
 759   0.0000       2.676050        72.8190 
 760   0.0000       2.685979        73.0892 
 761   0.0000       2.689006        73.1716 
 762   0.0000       2.693377        73.2905 
 763   0.0000       2.699822        73.4659 
 764   0.0000       2.703014        73.5527 
 765   0.0000       2.706304        73.6423 
 766   0.0000       2.725026        74.1517 
 767   0.0000       2.731197        74.3196 
 768   0.0000       2.734053        74.3974 
 769   0.0000       2.745490        74.7086 
 770   0.0000       2.756398        75.0054 
 771   0.0000       2.762807        75.1798 
 772   0.0000       2.774893        75.5087 
 773   0.0000       2.786486        75.8241 
 774   0.0000       2.790732        75.9397 
 775   0.0000       2.799952        76.1906 
 776   0.0000       2.807232        76.3887 
 777   0.0000       2.817108        76.6574 
 778   0.0000       2.833941        77.1155 
 779   0.0000       2.840238        77.2868 
 780   0.0000       2.843516        77.3760 
 781   0.0000       2.856431        77.7274 
 782   0.0000       2.860980        77.8512 
 783   0.0000       2.887111        78.5623 
 784   0.0000       2.890243        78.6475 
 785   0.0000       2.894925        78.7749 
 786   0.0000       2.912094        79.2421 
 787   0.0000       2.919871        79.4537 
 788   0.0000       2.921788        79.5059 
 789   0.0000       2.926813        79.6426 
 790   0.0000       2.936460        79.9051 
 791   0.0000       2.940083        80.0037 
 792   0.0000       2.948605        80.2356 
 793   0.0000       2.951080        80.3030 
 794   0.0000       2.954092        80.3849 
 795   0.0000       2.956599        80.4532 
 796   0.0000       2.961167        80.5775 
 797   0.0000       2.967145        80.7401 
 798   0.0000       2.970174        80.8226 
 799   0.0000       2.975251        80.9607 
 800   0.0000       2.978327        81.0444 
 801   0.0000       2.984379        81.2091 
 802   0.0000       2.987691        81.2992 
 803   0.0000       2.990240        81.3686 
 804   0.0000       2.993338        81.4529 
 805   0.0000       2.995511        81.5120 
 806   0.0000       3.004287        81.7508 
 807   0.0000       3.010048        81.9076 
 808   0.0000       3.011066        81.9353 
 809   0.0000       3.018725        82.1437 
 810   0.0000       3.022618        82.2496 
 811   0.0000       3.030955        82.4765 
 812   0.0000       3.034561        82.5746 
 813   0.0000       3.040874        82.7464 
 814   0.0000       3.043003        82.8043 
 815   0.0000       3.050634        83.0120 
 816   0.0000       3.053242        83.0829 
 817   0.0000       3.060636        83.2842 
 818   0.0000       3.061421        83.3055 
 819   0.0000       3.066838        83.4529 
 820   0.0000       3.069963        83.5379 
 821   0.0000       3.074708        83.6671 
 822   0.0000       3.079645        83.8014 
 823   0.0000       3.085723        83.9668 
 824   0.0000       3.097043        84.2748 
 825   0.0000       3.098538        84.3155 
 826   0.0000       3.108787        84.5944 
 827   0.0000       3.114212        84.7420 
 828   0.0000       3.117507        84.8317 
 829   0.0000       3.122322        84.9627 
 830   0.0000       3.122770        84.9749 
 831   0.0000       3.127321        85.0987 
 832   0.0000       3.133033        85.2542 
 833   0.0000       3.136228        85.3411 
 834   0.0000       3.142470        85.5110 
 835   0.0000       3.145462        85.5924 
 836   0.0000       3.148610        85.6780 
[...]
      dxz     :     0.182141
      dyz     :     0.329328
      dx2y2   :     0.260586
      dxy     :     0.224187
      f0      :     0.019154  f :     0.127571
      f+1     :     0.011721
      f-1     :     0.019781
      f+2     :     0.018956
      f-2     :     0.020897
      f+3     :     0.018853
      f-3     :     0.018209
 27 C s       :     2.690639  s :     2.690639
      pz      :     0.949099  p :     2.835611
      px      :     0.941055
      py      :     0.945456
      dz2     :     0.120058  d :     0.483392
      dxz     :     0.046118
      dyz     :     0.130538
      dx2y2   :     0.050516
      dxy     :     0.136162
      f0      :     0.001979  f :     0.019949
      f+1     :     0.003083
      f-1     :     0.004221
      f+2     :     0.003537
      f-2     :     0.001283
      f+3     :     0.001309
      f-3     :     0.004537
 28 H s       :     0.696512  s :     0.696512
      pz      :     0.134932  p :     0.369436
      px      :     0.093206
      py      :     0.141297
      dz2     :     0.010884  d :     0.031294
      dxz     :     0.006828
      dyz     :     0.008402
      dx2y2   :     0.002147
      dxy     :     0.003032
 29 H s       :     0.707057  s :     0.707057
      pz      :     0.088549  p :     0.318602
      px      :     0.124476
      py      :     0.105577
      dz2     :     0.002652  d :     0.030983
      dxz     :     0.006481
      dyz     :     0.004041
      dx2y2   :     0.009304
      dxy     :     0.008505
 30 H s       :     0.708284  s :     0.708284
      pz      :     0.087763  p :     0.311613
      px      :     0.120729
      py      :     0.103121
      dz2     :     0.002983  d :     0.030744
      dxz     :     0.006321
      dyz     :     0.003701
      dx2y2   :     0.009151
      dxy     :     0.008588
 31 C s       :     2.687782  s :     2.687782
      pz      :     0.941349  p :     2.825729
      px      :     0.937339
      py      :     0.947042
      dz2     :     0.127421  d :     0.479881
      dxz     :     0.048756
      dyz     :     0.126933
      dx2y2   :     0.046944
      dxy     :     0.129827
      f0      :     0.001817  f :     0.020153
      f+1     :     0.003146
      f-1     :     0.004599
      f+2     :     0.003472
      f-2     :     0.001136
      f+3     :     0.001368
      f-3     :     0.004614
 32 H s       :     0.704065  s :     0.704065
      pz      :     0.087731  p :     0.310635
      px      :     0.122041
      py      :     0.100864
      dz2     :     0.002726  d :     0.030836
      dxz     :     0.006774
      dyz     :     0.003311
      dx2y2   :     0.009194
      dxy     :     0.008831
 33 H s       :     0.697831  s :     0.697831
      pz      :     0.089362  p :     0.340874
      px      :     0.141946
      py      :     0.109566
      dz2     :     0.002670  d :     0.031076
      dxz     :     0.005801
      dyz     :     0.004487
      dx2y2   :     0.009692
      dxy     :     0.008426
 34 H s       :     0.704803  s :     0.704803
      pz      :     0.128619  p :     0.322544
      px      :     0.089847
      py      :     0.104079
      dz2     :     0.010554  d :     0.031088
      dxz     :     0.006559
      dyz     :     0.008219
      dx2y2   :     0.002445
      dxy     :     0.003310
 35 C s       :     2.666814  s :     2.666814
      pz      :     0.921105  p :     2.748461
      px      :     0.932571
      py      :     0.894785
      dz2     :     0.148840  d :     0.753611
      dxz     :     0.085496
      dyz     :     0.138225
      dx2y2   :     0.167245
      dxy     :     0.213805
      f0      :     0.004407  f :     0.031775
      f+1     :     0.003031
      f-1     :     0.004570
      f+2     :     0.004185
      f-2     :     0.004422
      f+3     :     0.006032
      f-3     :     0.005129
 36 H s       :     0.686081  s :     0.686081
      pz      :     0.133790  p :     0.312338
      px      :     0.094135
      py      :     0.084413
      dz2     :     0.010525  d :     0.031503
      dxz     :     0.010183
      dyz     :     0.009241
      dx2y2   :     0.000845
      dxy     :     0.000709
 37 H s       :     0.691937  s :     0.691937
      pz      :     0.090483  p :     0.295616
      px      :     0.109961
      py      :     0.095172
      dz2     :     0.006087  d :     0.031297
      dxz     :     0.005913
      dyz     :     0.004621
      dx2y2   :     0.008000
      dxy     :     0.006676
 38 C s       :     2.605559  s :     2.605559
      pz      :     0.885475  p :     2.523348
      px      :     0.746894
      py      :     0.890980
      dz2     :     0.228634  d :     1.071252
      dxz     :     0.184696
      dyz     :     0.288851
      dx2y2   :     0.183199
      dxy     :     0.185872
      f0      :     0.008565  f :     0.061894
      f+1     :     0.007301
      f-1     :     0.016890
      f+2     :     0.006228
      f-2     :     0.007857
      f+3     :     0.008032
      f-3     :     0.007021
 39 P s       :     4.630181  s :     4.630181
      pz      :     2.661479  p :     8.172967
      px      :     2.777830
      py      :     2.733659
      dz2     :     0.278709  d :     1.269540
      dxz     :     0.218760
      dyz     :     0.271549
      dx2y2   :     0.278555
      dxy     :     0.221967
      f0      :     0.017766  f :     0.130804
      f+1     :     0.016913
      f-1     :     0.020797
      f+2     :     0.017799
      f-2     :     0.018207
      f+3     :     0.021078
      f-3     :     0.018242
 40 H s       :     0.707285  s :     0.707285
      pz      :     0.085151  p :     0.309026
      px      :     0.124498
      py      :     0.099377
      dz2     :     0.002970  d :     0.030738
      dxz     :     0.007244
      dyz     :     0.002586
      dx2y2   :     0.009057
      dxy     :     0.008881
 41 H s       :     0.705518  s :     0.705518
      pz      :     0.096969  p :     0.325376
      px      :     0.122174
      py      :     0.106233
      dz2     :     0.004896  d :     0.031000
      dxz     :     0.005836
      dyz     :     0.004128
      dx2y2   :     0.008446
      dxy     :     0.007693
 42 H s       :     0.695244  s :     0.695244
      pz      :     0.148662  p :     0.357042
      px      :     0.087512
      py      :     0.120869
      dz2     :     0.011243  d :     0.031273
      dxz     :     0.009017
      dyz     :     0.009484
      dx2y2   :     0.000651
      dxy     :     0.000879
 43 C s       :     2.666074  s :     2.666074
      pz      :     0.937851  p :     2.756780
      px      :     0.930326
      py      :     0.888603
      dz2     :     0.171916  d :     0.775780
      dxz     :     0.093924
      dyz     :     0.123349
      dx2y2   :     0.168706
      dxy     :     0.217885
      f0      :     0.005038  f :     0.031484
      f+1     :     0.001948
      f-1     :     0.004490
      f+2     :     0.004939
      f-2     :     0.004054
      f+3     :     0.005665
      f-3     :     0.005351
 44 C s       :     2.688327  s :     2.688327
      pz      :     0.951705  p :     2.832742
      px      :     0.938385
      py      :     0.942651
      dz2     :     0.114830  d :     0.473015
      dxz     :     0.044156
      dyz     :     0.101194
      dx2y2   :     0.079144
      dxy     :     0.133692
      f0      :     0.003776  f :     0.020026
      f+1     :     0.002413
      f-1     :     0.001972
      f+2     :     0.003381
      f-2     :     0.002383
      f+3     :     0.001659
      f-3     :     0.004442
 45 C s       :     2.688223  s :     2.688223
      pz      :     0.945070  p :     2.824091
      px      :     0.939250
      py      :     0.939771
      dz2     :     0.109275  d :     0.465252
      dxz     :     0.093157
      dyz     :     0.122197
      dx2y2   :     0.043943
      dxy     :     0.096682
      f0      :     0.002815  f :     0.020078
      f+1     :     0.003074
      f-1     :     0.002774
      f+2     :     0.003126
      f-2     :     0.003039
      f+3     :     0.000788
      f-3     :     0.004461
 46 H s       :     0.678616  s :     0.678616
      pz      :     0.149987  p :     0.344180
      px      :     0.116180
      py      :     0.078013
      dz2     :     0.011622  d :     0.031763
      dxz     :     0.010168
      dyz     :     0.009692
      dx2y2   :     0.000151
      dxy     :     0.000130
 47 H s       :     0.694791  s :     0.694791
      pz      :     0.083915  p :     0.291454
      px      :     0.116052
      py      :     0.091487
      dz2     :     0.004241  d :     0.031121
      dxz     :     0.006274
      dyz     :     0.003313
      dx2y2   :     0.009423
      dxy     :     0.007869
 48 H s       :     0.698085  s :     0.698085
      pz      :     0.100738  p :     0.342376
      px      :     0.140622
      py      :     0.101016
      dz2     :     0.004933  d :     0.031126
      dxz     :     0.006659
      dyz     :     0.004341
      dx2y2   :     0.007943
      dxy     :     0.007251
 49 H s       :     0.705834  s :     0.705834
      pz      :     0.089322  p :     0.310185
      px      :     0.120555
      py      :     0.100308
      dz2     :     0.002698  d :     0.030778
      dxz     :     0.006762
      dyz     :     0.003527
      dx2y2   :     0.009438
      dxy     :     0.008353
 50 H s       :     0.705821  s :     0.705821
      pz      :     0.107919  p :     0.320007
      px      :     0.086586
      py      :     0.125503
      dz2     :     0.007105  d :     0.031077
      dxz     :     0.003186
      dyz     :     0.008323
      dx2y2   :     0.005497
      dxy     :     0.006966


                      *****************************
                      * MAYER POPULATION ANALYSIS *
                      *****************************

  NA   - Mulliken gross atomic population
  ZA   - Total nuclear charge
  QA   - Mulliken gross atomic charge
  VA   - Mayer's total valence
  BVA  - Mayer's bonded valence
  FA   - Mayer's free valence

  ATOM       NA         ZA         QA         VA         BVA        FA
  0 C      5.5246     6.0000     0.4754     1.0157     1.0157     0.0000
  1 C      5.0935     6.0000     0.9065    -0.0831    -0.0831    -0.0000
  2 C      5.3247     6.0000     0.6753     0.5340     0.5340     0.0000
  3 C      5.1094     6.0000     0.8906     0.9485     0.9485     0.0000
  4 C      7.3849     6.0000    -1.3849     3.2731     3.2731     0.0000
  5 H      0.7417     1.0000     0.2583     1.0530     1.0530     0.0000
  6 H      0.6699     1.0000     0.3301     0.9926     0.9926     0.0000
  7 H      0.6284     1.0000     0.3716     0.9898     0.9898    -0.0000
  8 C      7.5760     6.0000    -1.5760     3.4795     3.4795     0.0000
  9 H      0.6739     1.0000     0.3261     0.9553     0.9553     0.0000
 10 H      0.7222     1.0000     0.2778     1.0522     1.0522     0.0000
 11 H      0.6454     1.0000     0.3546     0.9781     0.9781     0.0000
 12 C      7.7133     6.0000    -1.7133     3.4637     3.4637    -0.0000
 13 H      0.6392     1.0000     0.3608     0.9670     0.9670    -0.0000
 14 H      0.7007     1.0000     0.2993     1.0242     1.0242    -0.0000
 15 H      0.6756     1.0000     0.3244     0.9513     0.9513    -0.0000
 16 C      7.3452     6.0000    -1.3452     3.3686     3.3686     0.0000
 17 H      0.6072     1.0000     0.3928     0.9467     0.9467     0.0000
 18 H      0.6807     1.0000     0.3193     1.0014     1.0014     0.0000
 19 H      0.7573     1.0000     0.2427     1.1177     1.1177     0.0000
 20 C      7.7704     6.0000    -1.7704     3.0232     3.0232    -0.0000
 21 H      0.6696     1.0000     0.3304     1.0182     1.0182    -0.0000
 22 H      0.6258     1.0000     0.3742     0.9145     0.9145    -0.0000
 23 H      0.6522     1.0000     0.3478     0.9287     0.9287    -0.0000
 24 Ru    17.7039    16.0000    -1.7039     6.5967     6.5967    -0.0000
 25 Cl    17.4363    17.0000    -0.4363     0.9490     0.9490    -0.0000
 26 P     13.2000    15.0000     1.8000     1.8177     1.8177     0.0000
 27 C      7.5450     6.0000    -1.5450     3.7567     3.7567    -0.0000
 28 H      0.6761     1.0000     0.3239     1.0602     1.0602    -0.0000
 29 H      0.6636     1.0000     0.3364     1.0189     1.0189    -0.0000
 30 H      0.5557     1.0000     0.4443     0.8859     0.8859    -0.0000
 31 C      7.4584     6.0000    -1.4584     3.6579     3.6579     0.0000
 32 H      0.5514     1.0000     0.4486     0.9146     0.9146     0.0000
 33 H      0.7099     1.0000     0.2901     1.0499     1.0499     0.0000
 34 H      0.7056     1.0000     0.2944     1.0514     1.0514     0.0000
 35 C      7.1699     6.0000    -1.1699     3.3273     3.3273    -0.0000
 36 H      0.5891     1.0000     0.4109     1.0108     1.0108    -0.0000
 37 H      0.4718     1.0000     0.5282     0.7688     0.7688    -0.0000
 38 C      5.5024     6.0000     0.4976     1.2836     1.2836    -0.0000
 39 P     13.5001    15.0000     1.4999     2.2241     2.2241     0.0000
 40 H      0.5546     1.0000     0.4454     0.9065     0.9065     0.0000
 41 H      0.6725     1.0000     0.3275     1.0031     1.0031    -0.0000
 42 H      0.7122     1.0000     0.2878     1.1478     1.1478    -0.0000
 43 C      6.7885     6.0000    -0.7885     2.9731     2.9731    -0.0000
 44 C      7.4790     6.0000    -1.4790     3.6122     3.6122    -0.0000
 45 C      7.4407     6.0000    -1.4407     3.6988     3.6988     0.0000
 46 H      0.5808     1.0000     0.4192     0.9166     0.9166    -0.0000
 47 H      0.4823     1.0000     0.5177     0.7902     0.7902    -0.0000
 48 H      0.6762     1.0000     0.3238     0.9953     0.9953    -0.0000
 49 H      0.5573     1.0000     0.4427     0.9040     0.9040     0.0000
 50 H      0.6851     1.0000     0.3149     1.0453     1.0453    -0.0000

  Mayer bond orders larger than 0.100000
B(  0-C ,  1-C ) :  -0.2124 B(  0-C ,  2-C ) :  -0.2884 B(  0-C ,  3-C ) :   0.3992 
B(  0-C ,  4-C ) :   0.3680 B(  0-C ,  5-H ) :  -0.1882 B(  0-C ,  6-H ) :  -0.2075 
B(  0-C , 24-Ru) :   0.8128 B(  0-C , 25-Cl) :   0.1042 B(  1-C , 22-H ) :  -0.2339 
B(  1-C , 23-H ) :  -0.2281 B(  1-C , 24-Ru) :   0.1421 B(  1-C , 25-Cl) :  -0.1290 
B(  1-C , 26-P ) :   0.2041 B(  2-C ,  3-C ) :   0.4627 B(  2-C , 12-C ) :   0.3413 
B(  2-C , 14-H ) :  -0.1536 B(  2-C , 15-H ) :  -0.1944 B(  2-C , 24-Ru) :   0.2108 
B(  2-C , 25-Cl) :  -0.1187 B(  2-C , 26-P ) :  -0.1077 B(  2-C , 38-C ) :   0.2788 
B(  3-C ,  8-C ) :   0.3755 B(  3-C ,  9-H ) :  -0.1717 B(  3-C , 10-H ) :  -0.1345 
B(  3-C , 24-Ru) :   0.1554 B(  3-C , 38-C ) :  -0.2863 B(  4-C ,  5-H ) :   1.0089 
B(  4-C ,  6-H ) :   1.0292 B(  4-C ,  7-H ) :   0.8784 B(  8-C ,  9-H ) :   0.9555 
B(  8-C , 10-H ) :   0.9793 B(  8-C , 11-H ) :   0.9315 B(  8-C , 24-Ru) :   0.2052 
B( 12-C , 13-H ) :   0.9162 B( 12-C , 14-H ) :   0.9508 B( 12-C , 15-H ) :   0.9777 
B( 12-C , 24-Ru) :   0.2549 B( 16-C , 17-H ) :   0.8579 B( 16-C , 18-H ) :   1.0382 
B( 16-C , 19-H ) :   1.1148 B( 16-C , 38-C ) :   0.3134 B( 16-C , 39-P ) :  -0.1110 
B( 18-H , 19-H ) :   0.1064 B( 18-H , 38-C ) :  -0.2120 B( 19-H , 38-C ) :  -0.2249 
B( 20-C , 21-H ) :   0.9429 B( 20-C , 22-H ) :   0.9876 B( 20-C , 23-H ) :   0.9722 
B( 20-C , 24-Ru) :   0.1297 B( 24-Ru, 25-Cl) :   0.8933 B( 24-Ru, 26-P ) :   0.9351 
B( 24-Ru, 27-C ) :   0.2646 B( 24-Ru, 31-C ) :   0.1476 B( 24-Ru, 38-C ) :   0.9956 
B( 24-Ru, 39-P ) :   1.0203 B( 24-Ru, 44-C ) :   0.1667 B( 24-Ru, 45-C ) :   0.1794 
B( 25-Cl, 26-P ) :  -0.1148 B( 25-Cl, 39-P ) :   0.2361 B( 26-P , 27-C ) :   0.5568 
B( 26-P , 28-H ) :  -0.1020 B( 26-P , 31-C ) :   0.4326 B( 26-P , 34-H ) :  -0.1372 
B( 26-P , 35-C ) :   0.4656 B( 26-P , 39-P ) :  -0.2245 B( 27-C , 28-H ) :   0.9804 
B( 27-C , 29-H ) :   0.9860 B( 27-C , 30-H ) :   0.8208 B( 27-C , 31-C ) :   0.1070 
B( 27-C , 35-C ) :   0.1384 B( 31-C , 32-H ) :   0.8481 B( 31-C , 33-H ) :   0.9610 
B( 31-C , 34-H ) :   1.0295 B( 31-C , 35-C ) :   0.1195 B( 35-C , 36-H ) :   0.9295 
B( 35-C , 37-H ) :   0.7727 B( 35-C , 39-P ) :   0.3151 B( 35-C , 43-C ) :   0.6716 
B( 36-H , 37-H ) :   0.1379 B( 38-C , 39-P ) :   0.1346 B( 39-P , 43-C ) :   0.3233 
B( 39-P , 44-C ) :   0.5382 B( 39-P , 45-C ) :   0.5081 B( 39-P , 50-H ) :  -0.1122 
B( 40-H , 44-C ) :   0.8317 B( 41-H , 44-C ) :   0.9946 B( 42-H , 44-C ) :   1.0055 
B( 43-C , 45-C ) :   0.1110 B( 43-C , 46-H ) :   1.0137 B( 43-C , 47-H ) :   0.8084 
B( 45-C , 48-H ) :   0.9528 B( 45-C , 49-H ) :   0.8323 B( 45-C , 50-H ) :   1.0112 


-------
TIMINGS
-------

Total SCF time: 0 days 1 hours 3 min 46 sec 

Total time                  ....    3826.663 sec
Sum of individual times     ....    3823.360 sec  ( 99.9%)

Fock matrix formation       ....    3808.623 sec  ( 99.5%)
  XC integration            ....      34.889 sec  (  0.9% of F)
    Basis function eval.    ....       3.303 sec  (  9.5% of XC)
    Density eval.           ....      14.788 sec  ( 42.4% of XC)
    XC-Functional eval.     ....       0.200 sec  (  0.6% of XC)
    XC-Potential eval.      ....      14.712 sec  ( 42.2% of XC)
Diagonalization             ....       4.606 sec  (  0.1%)
Density matrix formation    ....       0.262 sec  (  0.0%)
Population analysis         ....       0.426 sec  (  0.0%)
Initial guess               ....       3.390 sec  (  0.1%)
Orbital Transformation      ....       0.000 sec  (  0.0%)
Orbital Orthonormalization  ....       0.000 sec  (  0.0%)
DIIS solution               ....       4.477 sec  (  0.1%)
Grid generation             ....       1.577 sec  (  0.0%)

-------------------------   --------------------
FINAL SINGLE POINT ENERGY     -1866.198192053235
-------------------------   --------------------


                            ***************************************
                            *     ORCA property calculations      *
                            ***************************************

                                    ---------------------
                                    Active property flags
                                    ---------------------
   (+) Dipole Moment


------------------------------------------------------------------------------
                       ORCA ELECTRIC PROPERTIES CALCULATION
------------------------------------------------------------------------------

Dipole Moment Calculation                       ... on
Quadrupole Moment Calculation                   ... off
Polarizability Calculation                      ... off
GBWName                                         ... MOR33_pr28.gbw
Electron density file                           ... MOR33_pr28.scfp
The origin for moment calculation is the CENTER OF MASS  = ( 0.007976, -0.006902 -0.069662)

-------------
DIPOLE MOMENT
-------------
                                X             Y             Z
Electronic contribution:     12.02059      -1.43289     -17.67442
Nuclear contribution   :    -12.48154       1.60484      19.54441
                        -----------------------------------------
Total Dipole Moment    :     -0.46095       0.17196       1.87000
                        -----------------------------------------
Magnitude (a.u.)       :      1.93363
Magnitude (Debye)      :      4.91490



--------------------
Rotational spectrum 
--------------------
 
Rotational constants in cm-1:     0.010225     0.008868     0.007900 
Rotational constants in MHz :   306.523373   265.843264   236.824033 

 Dipole components along the rotational axes: 
x,y,z [a.u.] :    -0.410344    -0.197175     1.879272 
x,y,z [Debye]:    -1.043012    -0.501180     4.776729 

 

Timings for individual modules:

Sum of individual times         ...     3835.546 sec (=  63.926 min)
GTO integral calculation        ...        8.438 sec (=   0.141 min)   0.2 %
SCF iterations                  ...     3827.108 sec (=  63.785 min)  99.8 %
                             ****ORCA TERMINATED NORMALLY****
TOTAL RUN TIME: 0 days 1 hours 3 minutes 56 seconds 533 msec
