
                                 *****************
                                 * O   R   C   A *
                                 *****************

           --- An Ab Initio, DFT and Semiempirical electronic structure package ---

                  #######################################################
                  #                        -***-                        #
                  #          Department of theory and spectroscopy      #
                  #               Directorship: Frank Neese             #
                  #        Max Planck Institute fuer Kohlenforschung    #
                  #                Kaiser Wilhelm Platz 1               #
                  #                 D-45470 Muelheim/Ruhr               #
                  #                      Germany                        #
                  #                                                     #
                  #                  All rights reserved                #
                  #                        -***-                        #
                  #######################################################


                         Program Version 4.2.0 -  RELEASE  -


 With contributions from (in alphabetic order):
   Daniel Aravena         : Magnetic Suceptibility
   Michael Atanasov       : Ab Initio Ligand Field Theory (pilot matlab implementation)
   Alexander A. Auer      : GIAO ZORA, VPT2
   Ute Becker             : Parallelization
   Giovanni Bistoni       : ED, misc. LED, open-shell LED, HFLED
   Martin Brehm           : Molecular dynamics
   Dmytro Bykov           : SCF Hessian
   Vijay G. Chilkuri      : MRCI spin determinant printing, contributions to CSF-ICE
   Dipayan Datta          : RHF DLPNO-CCSD density
   Achintya Kumar Dutta   : EOM-CC, STEOM-CC
   Dmitry Ganyushin       : Spin-Orbit,Spin-Spin,Magnetic field MRCI
   Miquel Garcia          : C-PCM Hessian, Gaussian charge scheme
   Yang Guo               : DLPNO-NEVPT2, CIM, IAO-localization
   Andreas Hansen         : Spin unrestricted coupled pair/coupled cluster methods
   Benjamin Helmich-Paris : CASSCF linear response (MC-RPA)
   Lee Huntington         : MR-EOM, pCC
   Robert Izsak           : Overlap fitted RIJCOSX, COSX-SCS-MP3, EOM
   Christian Kollmar      : KDIIS, OOCD, Brueckner-CCSD(T), CCSD density
   Simone Kossmann        : Meta GGA functionals, TD-DFT gradient, OOMP2, MP2 Hessian
   Martin Krupicka        : AUTO-CI
   Lucas Lang             : DCDCAS
   Dagmar Lenk            : GEPOL surface, SMD
   Dimitrios Liakos       : Extrapolation schemes; Compound Job, initial MDCI parallelization
   Dimitrios Manganas     : Further ROCIS development; embedding schemes
   Dimitrios Pantazis     : SARC Basis sets
   Taras Petrenko         : DFT Hessian,TD-DFT gradient, ASA, ECA, R-Raman, ABS, FL, XAS/XES, NRVS
   Peter Pinski           : DLPNO-MP2, DLPNO-MP2 Gradient
   Christoph Reimann      : Effective Core Potentials
   Marius Retegan         : Local ZFS, SOC
   Christoph Riplinger    : Optimizer, TS searches, QM/MM, DLPNO-CCSD(T), (RO)-DLPNO pert. Triples
   Tobias Risthaus        : Range-separated hybrids, TD-DFT gradient, RPA, STAB
   Michael Roemelt        : Original ROCIS implementation
   Masaaki Saitow         : Open-shell DLPNO-CCSD energy and density
   Barbara Sandhoefer     : DKH picture change effects
   Avijit Sen             : IP-ROCIS
   Kantharuban Sivalingam : CASSCF convergence, NEVPT2, FIC-MRCI
   Bernardo de Souza      : ESD, SOC TD-DFT
   Georgi Stoychev        : AutoAux, RI-MP2 NMR
   Willem Van den Heuvel  : Paramagnetic NMR
   Boris Wezisla          : Elementary symmetry handling
   Frank Wennmohs         : Technical directorship


 We gratefully acknowledge several colleagues who have allowed us to
 interface, adapt or use parts of their codes:
   Stefan Grimme, W. Hujo, H. Kruse,             : VdW corrections, initial TS optimization,
                  C. Bannwarth                     DFT functionals, gCP, sTDA/sTD-DF
   Ed Valeev, F. Pavosevic, A. Kumar             : LibInt (2-el integral package), F12 methods
   Garnet Chan, S. Sharma, J. Yang, R. Olivares  : DMRG
   Ulf Ekstrom                                   : XCFun DFT Library
   Mihaly Kallay                                 : mrcc  (arbitrary order and MRCC methods)
   Andreas Klamt, Michael Diedenhofen            : otool_cosmo (COSMO solvation model)
   Jiri Pittner, Ondrej Demel                    : Mk-CCSD
   Frank Weinhold                                : gennbo (NPA and NBO analysis)
   Christopher J. Cramer and Donald G. Truhlar   : smd solvation model
   Lars Goerigk                                  : TD-DFT with DH, B97 family of functionals
   V. Asgeirsson, H. Jonsson                     : NEB implementation
   FAccTs GmbH                                   : IRC, NEB, NEB-TS, Multilevel, MM, QM/MM, CI optimization
   S Lehtola, MJT Oliveira, MAL Marques          : LibXC Library


 Your calculation uses the libint2 library for the computation of 2-el integrals
 For citations please refer to: http://libint.valeyev.net

 Your ORCA version has been built with support for libXC version: 4.2.3
 For citations please refer to: https://tddft.org/programs/libxc/

 This ORCA versions uses:
   CBLAS   interface :  Fast vector & matrix operations
   LAPACKE interface :  Fast linear algebra routines
   SCALAPACK package :  Parallel linear algebra routines


Your calculation utilizes the DFT-NL dispersion correction.
Cite in your paper:
Vydrov, O. A.; Van Voorhis, T. J. Chem. Phys. 2010, 133, 244103
Hujo, W.; Grimme, S. J. Chem. Theory Comput. 2011, 7, 3866 
   

----- Orbital basis set information -----
Your calculation utilizes the basis: def2-TZVPPD
   F. Weigend and R. Ahlrichs, Phys. Chem. Chem. Phys. 7, 3297 (2005).
   D. Rappoport and F. Furche, J. Chem. Phys. 133 134105 (2010).

----- AuxJK basis set information -----
Your calculation utilizes the auxiliary basis: def2/JK
   H-Ba, Hf-Rn: F. Weigend, J. Comput. Chem. 29, 167 (2008).

cite the ECPs for Ru [Def2-ECP] as follows:
Ce-Yb(ecp-28): M. Dolg, H. Stoll, H.Preuss, J. Chem. Phys., 1989, 90, 1730-1734.
Y-Cd(ecp-28), Hf-Hg(ecp-46): D. Andrae,U. Haeussermann, M. Dolg, H. Stoll, H. Preuss, Theor. Chim. Acta, 1990, 77, 123-141.
In-Sb(ecp-28), Tl-Bi(ecp-46): B. Metz, H. Stoll, M. Dolg, J. Chem. Phys., 2000, 113, 2563-2569.
Te-Xe(ecp-28), Po-Rn(ecp-46): K. A. Peterson, D. Figgen, E. Goll, H. Stoll, M. Dolg, J. Chem. Phys., 2003, 119, 11113-11123.
Rb(ecp-28), Cs(ecp-46): T. Leininger, A. Nicklass, W. Kuechle, H. Stoll, M. Dolg, A. Bergner, Chem. Phys. Lett., 1996, 255, 274-280.
Sr(ecp-28), Ba(ecp-46): M. Kaupp, P. V. Schleyer, H. Stoll and H. Preuss, J. Chem. Phys., 1991, 94, 1360-1366.
La(ecp-46): M. Dolg, H. Stoll, A. Savin, H. Preuss, Theor. Chim. Acta, 1989, 75, 173-194.
Lu(ecp-28): X. Cao, M. Dolg, J. Chem. Phys., 2001, 115, 7348-7355.

ECP parameters for Ru [Def2-ECP] have been obtained from:
TURBOMOLE (7.0.2)

================================================================================
                                        WARNINGS
                       Please study these warnings very carefully!
================================================================================


INFO   : the flag for use of LIBINT has been found!

================================================================================
                                       INPUT FILE
================================================================================
NAME = MOR34_pr35.in
|  1> #
|  2> # MOR34_pr35 wB97M-V/Def2-TZVPPD
|  3> #
|  4> ! wb97m-v def2-tzvppd def2/jk grid4 nofinalgrid
|  5> 
|  6> *xyz 0 1
|  7> Ru       0.569145    0.005836    0.165179 
|  8> Se      -1.577691    0.219302   -1.256403 
|  9> P        2.150844   -0.339975    1.751510 
| 10> P        1.960774    0.268717   -1.689611 
| 11> P        0.209152    2.312844    0.427199 
| 12> P        0.201777   -2.273734   -0.170115 
| 13> C       -3.165297    0.017396   -0.190307 
| 14> C       -4.394132    0.053132   -0.874133 
| 15> C       -5.595730   -0.078160   -0.183035 
| 16> C       -5.602894   -0.248979    1.204636 
| 17> C       -4.386994   -0.285335    1.887322 
| 18> C       -3.179536   -0.153593    1.200055 
| 19> C        2.835775    1.024261    2.797241 
| 20> C        3.776990   -1.134294    1.350685 
| 21> C        1.582544   -1.410719    3.147602 
| 22> C        1.189258    0.640725   -3.324662 
| 23> C        3.233820    1.610023   -1.608962 
| 24> C        3.088037   -1.102636   -2.218553 
| 25> C       -1.285561    2.723129    1.411363 
| 26> C        1.411100    3.483245    1.220886 
| 27> C       -0.106458    3.317190   -1.091179 
| 28> C       -1.203048   -2.960414    0.792609 
| 29> C        1.495583   -3.557062    0.180127 
| 30> C       -0.249251   -2.863510   -1.860160 
| 31> H       -0.380046   -0.139952    1.501494 
| 32> H       -4.399385    0.184833   -1.953205 
| 33> H       -6.533440   -0.047821   -0.732848 
| 34> H       -6.541373   -0.352173    1.741881 
| 35> H       -4.372710   -0.417664    2.966984 
| 36> H       -2.231572   -0.183831    1.730627 
| 37> H        2.021868    1.525326    3.326216 
| 38> H        3.360848    1.757391    2.181578 
| 39> H        3.533951    0.611895    3.534364 
| 40> H        4.357450   -0.458164    0.715432 
| 41> H        3.629968   -2.070962    0.811827 
| 42> H        4.349762   -1.333108    2.263576 
| 43> H        0.778593   -0.879257    3.663997 
| 44> H        2.395525   -1.623101    3.851423 
| 45> H        1.170731   -2.350778    2.777081 
| 46> H        1.942377    0.770617   -4.110078 
| 47> H        0.580686    1.544719   -3.247034 
| 48> H        0.519142   -0.181425   -3.592607 
| 49> H        3.848415    1.640003   -2.515852 
| 50> H        3.881269    1.436754   -0.744032 
| 51> H        2.749674    2.580347   -1.477575 
| 52> H        3.680607   -0.803573   -3.090502 
| 53> H        2.506614   -1.989838   -2.479223 
| 54> H        3.765021   -1.364235   -1.402566 
| 55> H       -1.422862    3.807855    1.484184 
| 56> H       -1.180491    2.295670    2.412101 
| 57> H       -2.158099    2.270920    0.935224 
| 58> H        1.060677    4.511234    1.077988 
| 59> H        2.402787    3.383240    0.772277 
| 60> H        1.491749    3.290644    2.291344 
| 61> H       -0.430215    4.323980   -0.805953 
| 62> H       -0.883917    2.832935   -1.685612 
| 63> H        0.806667    3.401312   -1.686904 
| 64> H       -1.338643   -4.028887    0.591012 
| 65> H       -2.108817   -2.414477    0.518490 
| 66> H       -1.024200   -2.804556    1.859563 
| 67> H        1.083825   -4.556345    0.001539 
| 68> H        1.848365   -3.505467    1.212021 
| 69> H        2.350340   -3.408454   -0.485526 
| 70> H       -0.446095   -3.940916   -1.837012 
| 71> H        0.566038   -2.668527   -2.561627 
| 72> H       -1.135395   -2.323383   -2.198214 
| 73> *
| 74> 
| 75> %maxcore 5000
| 76> 
| 77> %pal
| 78> nprocs = 24
| 79> end
| 80> 
| 81> 
| 82>                          ****END OF INPUT****
================================================================================

                       ****************************
                       * Single Point Calculation *
                       ****************************

---------------------------------
CARTESIAN COORDINATES (ANGSTROEM)
---------------------------------
  Ru     0.569145    0.005836    0.165179
  Se    -1.577691    0.219302   -1.256403
  P      2.150844   -0.339975    1.751510
  P      1.960774    0.268717   -1.689611
  P      0.209152    2.312844    0.427199
  P      0.201777   -2.273734   -0.170115
  C     -3.165297    0.017396   -0.190307
  C     -4.394132    0.053132   -0.874133
  C     -5.595730   -0.078160   -0.183035
  C     -5.602894   -0.248979    1.204636
  C     -4.386994   -0.285335    1.887322
  C     -3.179536   -0.153593    1.200055
  C      2.835775    1.024261    2.797241
  C      3.776990   -1.134294    1.350685
  C      1.582544   -1.410719    3.147602
  C      1.189258    0.640725   -3.324662
  C      3.233820    1.610023   -1.608962
  C      3.088037   -1.102636   -2.218553
  C     -1.285561    2.723129    1.411363
  C      1.411100    3.483245    1.220886
  C     -0.106458    3.317190   -1.091179
  C     -1.203048   -2.960414    0.792609
  C      1.495583   -3.557062    0.180127
  C     -0.249251   -2.863510   -1.860160
  H     -0.380046   -0.139952    1.501494
  H     -4.399385    0.184833   -1.953205
  H     -6.533440   -0.047821   -0.732848
  H     -6.541373   -0.352173    1.741881
  H     -4.372710   -0.417664    2.966984
  H     -2.231572   -0.183831    1.730627
  H      2.021868    1.525326    3.326216
  H      3.360848    1.757391    2.181578
  H      3.533951    0.611895    3.534364
  H      4.357450   -0.458164    0.715432
  H      3.629968   -2.070962    0.811827
  H      4.349762   -1.333108    2.263576
  H      0.778593   -0.879257    3.663997
  H      2.395525   -1.623101    3.851423
  H      1.170731   -2.350778    2.777081
  H      1.942377    0.770617   -4.110078
  H      0.580686    1.544719   -3.247034
  H      0.519142   -0.181425   -3.592607
  H      3.848415    1.640003   -2.515852
  H      3.881269    1.436754   -0.744032
  H      2.749674    2.580347   -1.477575
  H      3.680607   -0.803573   -3.090502
  H      2.506614   -1.989838   -2.479223
  H      3.765021   -1.364235   -1.402566
  H     -1.422862    3.807855    1.484184
  H     -1.180491    2.295670    2.412101
  H     -2.158099    2.270920    0.935224
  H      1.060677    4.511234    1.077988
  H      2.402787    3.383240    0.772277
  H      1.491749    3.290644    2.291344
  H     -0.430215    4.323980   -0.805953
  H     -0.883917    2.832935   -1.685612
  H      0.806667    3.401312   -1.686904
  H     -1.338643   -4.028887    0.591012
  H     -2.108817   -2.414477    0.518490
  H     -1.024200   -2.804556    1.859563
  H      1.083825   -4.556345    0.001539
  H      1.848365   -3.505467    1.212021
  H      2.350340   -3.408454   -0.485526
  H     -0.446095   -3.940916   -1.837012
  H      0.566038   -2.668527   -2.561627
  H     -1.135395   -2.323383   -2.198214

----------------------------
CARTESIAN COORDINATES (A.U.)
----------------------------
  NO LB      ZA    FRAG     MASS         X           Y           Z
   0 Ru   16.0000*   0   101.070    1.075528    0.011028    0.312143
   1 Se   34.0000    0    78.960   -2.981404    0.414421   -2.374258
   2 P    15.0000    0    30.974    4.064506   -0.642460    3.309874
   3 P    15.0000    0    30.974    3.705326    0.507802   -3.192902
   4 P    15.0000    0    30.974    0.395240    4.370642    0.807289
   5 P    15.0000    0    30.974    0.381303   -4.296735   -0.321471
   6 C     6.0000    0    12.011   -5.981544    0.032874   -0.359628
   7 C     6.0000    0    12.011   -8.303706    0.100405   -1.651872
   8 C     6.0000    0    12.011  -10.574397   -0.147701   -0.345886
   9 C     6.0000    0    12.011  -10.587935   -0.470502    2.276432
  10 C     6.0000    0    12.011   -8.290217   -0.539205    3.566522
  11 C     6.0000    0    12.011   -6.008452   -0.290249    2.267775
  12 C     6.0000    0    12.011    5.358838    1.935573    5.286019
  13 C     6.0000    0    12.011    7.137477   -2.143505    2.552425
  14 C     6.0000    0    12.011    2.990575   -2.665873    5.948106
  15 C     6.0000    0    12.011    2.247372    1.210795   -6.282701
  16 C     6.0000    0    12.011    6.111034    3.042503   -3.040498
  17 C     6.0000    0    12.011    5.835544   -2.083680   -4.192458
  18 C     6.0000    0    12.011   -2.429358    5.145968    2.667090
  19 C     6.0000    0    12.011    2.666593    6.582379    2.307140
  20 C     6.0000    0    12.011   -0.201176    6.268581   -2.062029
  21 C     6.0000    0    12.011   -2.273431   -5.594372    1.497814
  22 C     6.0000    0    12.011    2.826242   -6.721873    0.340391
  23 C     6.0000    0    12.011   -0.471016   -5.411250   -3.515193
  24 H     1.0000    0     1.008   -0.718183   -0.264471    2.837412
  25 H     1.0000    0     1.008   -8.313633    0.349284   -3.691023
  26 H     1.0000    0     1.008  -12.346412   -0.090369   -1.384882
  27 H     1.0000    0     1.008  -12.361404   -0.665511    3.291678
  28 H     1.0000    0     1.008   -8.263224   -0.789271    5.606787
  29 H     1.0000    0     1.008   -4.217060   -0.347390    3.270411
  30 H     1.0000    0     1.008    3.820777    2.882448    6.285637
  31 H     1.0000    0     1.008    6.351082    3.320988    4.122585
  32 H     1.0000    0     1.008    6.678200    1.156314    6.678980
  33 H     1.0000    0     1.008    8.234387   -0.865804    1.351971
  34 H     1.0000    0     1.008    6.859645   -3.913551    1.534131
  35 H     1.0000    0     1.008    8.219859   -2.519209    4.277539
  36 H     1.0000    0     1.008    1.471328   -1.661555    6.923951
  37 H     1.0000    0     1.008    4.526886   -3.067216    7.278135
  38 H     1.0000    0     1.008    2.212361   -4.442327    5.247923
  39 H     1.0000    0     1.008    3.670561    1.456255   -7.766922
  40 H     1.0000    0     1.008    1.097338    2.919096   -6.136005
  41 H     1.0000    0     1.008    0.981036   -0.342844   -6.789043
  42 H     1.0000    0     1.008    7.272450    3.099157   -4.754271
  43 H     1.0000    0     1.008    7.334535    2.715072   -1.406017
  44 H     1.0000    0     1.008    5.196131    4.876149   -2.792212
  45 H     1.0000    0     1.008    6.955339   -1.518533   -5.840202
  46 H     1.0000    0     1.008    4.736814   -3.760249   -4.685052
  47 H     1.0000    0     1.008    7.114859   -2.578031   -2.650466
  48 H     1.0000    0     1.008   -2.688820    7.195803    2.804701
  49 H     1.0000    0     1.008   -2.230805    4.338188    4.558210
  50 H     1.0000    0     1.008   -4.078216    4.291417    1.767317
  51 H     1.0000    0     1.008    2.004389    8.524997    2.037102
  52 H     1.0000    0     1.008    4.540609    6.393397    1.459392
  53 H     1.0000    0     1.008    2.818997    6.218416    4.330013
  54 H     1.0000    0     1.008   -0.812989    8.171138   -1.523030
  55 H     1.0000    0     1.008   -1.670361    5.353471   -3.185345
  56 H     1.0000    0     1.008    1.524380    6.427548   -3.187787
  57 H     1.0000    0     1.008   -2.529669   -7.613493    1.116851
  58 H     1.0000    0     1.008   -3.985087   -4.562700    0.979804
  59 H     1.0000    0     1.008   -1.935458   -5.299843    3.514065
  60 H     1.0000    0     1.008    2.048132   -8.610244    0.002908
  61 H     1.0000    0     1.008    3.492904   -6.624373    2.290388
  62 H     1.0000    0     1.008    4.441499   -6.441045   -0.917511
  63 H     1.0000    0     1.008   -0.842997   -7.447252   -3.471450
  64 H     1.0000    0     1.008    1.069657   -5.042785   -4.840773
  65 H     1.0000    0     1.008   -2.145586   -4.390558   -4.154022
* core charge reduced due to ECP

--------------------------------
INTERNAL COORDINATES (ANGSTROEM)
--------------------------------
 Ru     0   0   0     0.000000000000     0.00000000     0.00000000
 Se     1   0   0     2.583673339797     0.00000000     0.00000000
 P      1   2   0     2.266672233889   167.82254067     0.00000000
 P      1   2   3     2.333663137195    92.80200809   166.76047424
 P      1   2   4     2.349581952713    81.54250247    93.60996449
 P      1   2   5     2.333199669715    82.57788689   171.55856280
 C      2   1   3     1.922971535226   111.85725351    11.53164182
 C      7   2   1     1.406744652450   116.68103661   182.89427994
 C      8   7   2     1.392369127951   120.67546268   180.32195416
 C      9   8   7     1.398163530456   120.56823091   359.95785876
 C     10   9   8     1.394917468287   118.97675665     0.02962446
 C     11  10   9     1.395581135448   120.70981207     0.00000000
 C      3   1   6     1.850357712124   122.77488556   189.94728228
 C      3   1   6     1.853632694927   121.74980608    66.09597685
 C      3   1   6     1.848926844415   113.72287748   305.48122482
 C      4   1   2     1.845811112471   118.52185856     4.64911413
 C      4   1   2     1.851013820843   117.20186271   125.29182222
 C      4   1   2     1.852325716806   120.42876078   243.44902180
 C      5   1   2     1.836049975488   113.82342303    67.88974492
 C      5   1   2     1.855924715465   124.58766552   188.75554278
 C      5   1   2     1.847645071625   117.92139312   310.71897344
 C      6   1   2     1.836273455453   114.23454853   286.92909855
 C      6   1   2     1.855676205534   122.60004795   165.81372350
 C      6   1   2     1.845945310399   118.82881057    44.64401051
 H      1   2   7     1.645586665797    88.55850777   356.78184672
 H      8   7   2     1.087092051573   119.32859830     0.32281936
 H      9   8   7     1.087434979201   119.37871067   180.02116994
 H     10   9   8     1.086289107513   120.45691982   180.05833852
 H     11  10   9     1.087835020185   120.02306522   180.01216553
 H     12  11  10     1.086764339277   120.77359530   180.12777620
 H     13   3   1     1.092394292140   109.63645103    56.86061758
 H     13   3   1     1.091889271766   110.75541842   296.70416021
 H     13   3   1     1.095831082814   109.78853649   176.28248171
 H     14   3   1     1.094363724960   109.03119945    67.93586954
 H     14   3   1     1.090564236931   110.89313962   308.68003754
 H     14   3   1     1.095885371953   110.86246403   187.40227776
 H     15   3   1     1.093367670946   107.52575735   295.64752171
 H     15   3   1     1.096087688247   111.65938172   175.32529672
 H     15   3   1     1.091140083532   111.01001699    53.04348534
 H     16   4   1     1.095873374474   111.80851335   178.34122230
 H     16   4   1     1.092515966750   109.67318472    56.53749464
 H     16   4   1     1.093974679314   108.75567273   299.43004624
 H     17   4   1     1.095935804016   111.68221369   178.84907124
 H     17   4   1     1.094219474723   109.06495375    58.23292049
 H     17   4   1     1.092331706974   110.12730248   299.96812599
 H     18   4   1     1.095843484020   110.74730956   181.08555098
 H     18   4   1     1.092304418481   110.21468700    60.84087912
 H     18   4   1     1.092051352834   109.95248911   301.54367654
 H     19   5   1     1.095803338979   111.02812461   181.37900991
 H     19   5   1     1.093269155435   108.96827150    60.35997306
 H     19   5   1     1.092027421105   108.91814056   302.40497515
 H     20   5   1     1.095434845828   109.19857602   171.64343775
 H     20   5   1     1.093020649793   110.75462316    51.82768862
 H     20   5   1     1.090632722857   110.87089122   291.14673263
 H     21   5   1     1.095353171459   109.64119664   169.95413318
 H     21   5   1     1.091923071098   109.14300190    49.63426167
 H     21   5   1     1.093509054436   110.29629282   289.42313187
 H     22   6   1     1.095747190808   111.27583572   179.39156737
 H     22   6   1     1.092522729965   108.41252727    58.56115809
 H     22   6   1     1.093009222918   109.46777602   300.95053501
 H     23   6   1     1.095447323424   109.75623725   176.95232143
 H     23   6   1     1.091751991427   111.77753787    56.41490656
 H     23   6   1     1.093520819702   109.63992965   296.13145019
 H     24   6   1     1.095484860268   109.80275938   183.42327351
 H     24   6   1     1.093055568532   110.38410322    63.41923298
 H     24   6   1     1.091452642940   108.89494476   304.31833747

---------------------------
INTERNAL COORDINATES (A.U.)
---------------------------
 Ru     0   0   0     0.000000000000     0.00000000     0.00000000
 Se     1   0   0     4.882435031729     0.00000000     0.00000000
 P      1   2   0     4.283389757414   167.82254067     0.00000000
 P      1   2   3     4.409984218126    92.80200809   166.76047424
 P      1   2   4     4.440066419831    81.54250247    93.60996449
 P      1   2   5     4.409108391518    82.57788689   171.55856280
 C      2   1   3     3.633889564903   111.85725351    11.53164182
 C      7   2   1     2.658362133489   116.68103661   182.89427994
 C      8   7   2     2.631196329155   120.67546268   180.32195416
 C      9   8   7     2.642146162999   120.56823091   359.95785876
 C     10   9   8     2.636011994485   118.97675665     0.02962446
 C     11  10   9     2.637266143663   120.70981207     0.00000000
 C      3   1   6     3.496669325704   122.77488556   189.94728228
 C      3   1   6     3.502858146294   121.74980608    66.09597685
 C      3   1   6     3.493965377600   113.72287748   305.48122482
 C      4   1   2     3.488077497518   118.52185856     4.64911413
 C      4   1   2     3.497909191497   117.20186271   125.29182222
 C      4   1   2     3.500388315583   120.42876078   243.44902180
 C      5   1   2     3.469631621865   113.82342303    67.88974492
 C      5   1   2     3.507189437405   124.58766552   188.75554278
 C      5   1   2     3.491543178060   117.92139312   310.71897344
 C      6   1   2     3.470053937795   114.23454853   286.92909855
 C      6   1   2     3.506719821693   122.60004795   165.81372350
 C      6   1   2     3.488331094851   118.82881057    44.64401051
 H      1   2   7     3.109708127990    88.55850777   356.78184672
 H      8   7   2     2.054306259836   119.32859830     0.32281936
 H      9   8   7     2.054954299136   119.37871067   180.02116994
 H     10   9   8     2.052788915462   120.45691982   180.05833852
 H     11  10   9     2.055710267038   120.02306522   180.01216553
 H     12  11  10     2.053686973345   120.77359530   180.12777620
 H     13   3   1     2.064326042402   109.63645103    56.86061758
 H     13   3   1     2.063371692205   110.75541842   296.70416021
 H     13   3   1     2.070820635557   109.78853649   176.28248171
 H     14   3   1     2.068047731073   109.03119945    67.93586954
 H     14   3   1     2.060867739248   110.89313962   308.68003754
 H     14   3   1     2.070923227162   110.86246403   187.40227776
 H     15   3   1     2.066165461771   107.52575735   295.64752171
 H     15   3   1     2.071305549549   111.65938172   175.32529672
 H     15   3   1     2.061955931620   111.01001699    53.04348534
 H     16   4   1     2.070900555212   111.80851335   178.34122230
 H     16   4   1     2.064555974094   109.67318472    56.53749464
 H     16   4   1     2.067312541349   108.75567273   299.43004624
 H     17   4   1     2.071018529950   111.68221369   178.84907124
 H     17   4   1     2.067775137629   109.06495375    58.23292049
 H     17   4   1     2.064207773580   110.12730248   299.96812599
 H     18   4   1     2.070844070441   110.74730956   181.08555098
 H     18   4   1     2.064156205801   110.21468700    60.84087912
 H     18   4   1     2.063677981034   109.95248911   301.54367654
 H     19   5   1     2.070768207307   111.02812461   181.37900991
 H     19   5   1     2.065979294435   108.96827150    60.35997306
 H     19   5   1     2.063632756621   108.91814056   302.40497515
 H     20   5   1     2.070071856169   109.19857602   171.64343775
 H     20   5   1     2.065509686830   110.75462316    51.82768862
 H     20   5   1     2.060997158892   110.87089122   291.14673263
 H     21   5   1     2.069917513979   109.64119664   169.95413318
 H     21   5   1     2.063435563685   109.14300190    49.63426167
 H     21   5   1     2.066432637848   110.29629282   289.42313187
 H     22   6   1     2.070662102640   111.27583572   179.39156737
 H     22   6   1     2.064568754719   108.41252727    58.56115809
 H     22   6   1     2.065488093165   109.46777602   300.95053501
 H     23   6   1     2.070095435409   109.75623725   176.95232143
 H     23   6   1     2.063112269960   111.77753787    56.41490656
 H     23   6   1     2.066454870978   109.63992965   296.13145019
 H     24   6   1     2.070166369763   109.80275938   183.42327351
 H     24   6   1     2.065575673683   110.38410322    63.41923298
 H     24   6   1     2.062546583301   108.89494476   304.31833747

---------------------
BASIS SET INFORMATION
---------------------
There are 5 groups of distinct atoms

 Group   1 Type Ru  : 7s7p5d2f1g contracted to 6s4p3d2f1g pattern {211111/4111/311/11/1}
 Group   2 Type Se  : 18s14p9d1f contracted to 7s6p5d1f pattern {8421111/641111/51111/1}
 Group   3 Type P   : 15s9p4d1f contracted to 6s5p4d1f pattern {732111/51111/1111/1}
 Group   4 Type C   : 12s6p3d1f contracted to 6s3p3d1f pattern {621111/411/111/1}
 Group   5 Type H   : 5s3p1d contracted to 3s3p1d pattern {311/111/1}

Atom   0Ru   basis set group =>   1
Atom   1Se   basis set group =>   2
Atom   2P    basis set group =>   3
Atom   3P    basis set group =>   3
Atom   4P    basis set group =>   3
Atom   5P    basis set group =>   3
Atom   6C    basis set group =>   4
Atom   7C    basis set group =>   4
Atom   8C    basis set group =>   4
Atom   9C    basis set group =>   4
Atom  10C    basis set group =>   4
Atom  11C    basis set group =>   4
Atom  12C    basis set group =>   4
Atom  13C    basis set group =>   4
Atom  14C    basis set group =>   4
Atom  15C    basis set group =>   4
Atom  16C    basis set group =>   4
Atom  17C    basis set group =>   4
Atom  18C    basis set group =>   4
Atom  19C    basis set group =>   4
Atom  20C    basis set group =>   4
Atom  21C    basis set group =>   4
Atom  22C    basis set group =>   4
Atom  23C    basis set group =>   4
Atom  24H    basis set group =>   5
Atom  25H    basis set group =>   5
Atom  26H    basis set group =>   5
Atom  27H    basis set group =>   5
Atom  28H    basis set group =>   5
Atom  29H    basis set group =>   5
Atom  30H    basis set group =>   5
Atom  31H    basis set group =>   5
Atom  32H    basis set group =>   5
Atom  33H    basis set group =>   5
Atom  34H    basis set group =>   5
Atom  35H    basis set group =>   5
Atom  36H    basis set group =>   5
Atom  37H    basis set group =>   5
Atom  38H    basis set group =>   5
Atom  39H    basis set group =>   5
Atom  40H    basis set group =>   5
Atom  41H    basis set group =>   5
Atom  42H    basis set group =>   5
Atom  43H    basis set group =>   5
Atom  44H    basis set group =>   5
Atom  45H    basis set group =>   5
Atom  46H    basis set group =>   5
Atom  47H    basis set group =>   5
Atom  48H    basis set group =>   5
Atom  49H    basis set group =>   5
Atom  50H    basis set group =>   5
Atom  51H    basis set group =>   5
Atom  52H    basis set group =>   5
Atom  53H    basis set group =>   5
Atom  54H    basis set group =>   5
Atom  55H    basis set group =>   5
Atom  56H    basis set group =>   5
Atom  57H    basis set group =>   5
Atom  58H    basis set group =>   5
Atom  59H    basis set group =>   5
Atom  60H    basis set group =>   5
Atom  61H    basis set group =>   5
Atom  62H    basis set group =>   5
Atom  63H    basis set group =>   5
Atom  64H    basis set group =>   5
Atom  65H    basis set group =>   5
----------------------------------
AUXILIARY/JK BASIS SET INFORMATION
----------------------------------
There are 5 groups of distinct atoms

 Group   1 Type Ru  : 13s12p10d9f6g3h2i contracted to 11s10p9d8f6g3h2i pattern {31111111111/3111111111/211111111/21111111/111111/111/11}
 Group   2 Type Se  : 20s14p13d10f7g3h contracted to 17s13p12d9f6g3h pattern {41111111111111111/2111111111111/211111111111/211111111/211111/111}
 Group   3 Type P   : 16s12p10d4f1g contracted to 13s11p9d4f1g pattern {4111111111111/21111111111/211111111/1111/1}
 Group   4 Type C   : 14s10p6d2f1g contracted to 10s8p5d1f1g pattern {5111111111/31111111/21111/2/1}
 Group   5 Type H   : 4s2p2d contracted to 2s2p2d pattern {31/11/11}

Atom   0Ru   basis set group =>   1
Atom   1Se   basis set group =>   2
Atom   2P    basis set group =>   3
Atom   3P    basis set group =>   3
Atom   4P    basis set group =>   3
Atom   5P    basis set group =>   3
Atom   6C    basis set group =>   4
Atom   7C    basis set group =>   4
Atom   8C    basis set group =>   4
Atom   9C    basis set group =>   4
Atom  10C    basis set group =>   4
Atom  11C    basis set group =>   4
Atom  12C    basis set group =>   4
Atom  13C    basis set group =>   4
Atom  14C    basis set group =>   4
Atom  15C    basis set group =>   4
Atom  16C    basis set group =>   4
Atom  17C    basis set group =>   4
Atom  18C    basis set group =>   4
Atom  19C    basis set group =>   4
Atom  20C    basis set group =>   4
Atom  21C    basis set group =>   4
Atom  22C    basis set group =>   4
Atom  23C    basis set group =>   4
Atom  24H    basis set group =>   5
Atom  25H    basis set group =>   5
Atom  26H    basis set group =>   5
Atom  27H    basis set group =>   5
Atom  28H    basis set group =>   5
Atom  29H    basis set group =>   5
Atom  30H    basis set group =>   5
Atom  31H    basis set group =>   5
Atom  32H    basis set group =>   5
Atom  33H    basis set group =>   5
Atom  34H    basis set group =>   5
Atom  35H    basis set group =>   5
Atom  36H    basis set group =>   5
Atom  37H    basis set group =>   5
Atom  38H    basis set group =>   5
Atom  39H    basis set group =>   5
Atom  40H    basis set group =>   5
Atom  41H    basis set group =>   5
Atom  42H    basis set group =>   5
Atom  43H    basis set group =>   5
Atom  44H    basis set group =>   5
Atom  45H    basis set group =>   5
Atom  46H    basis set group =>   5
Atom  47H    basis set group =>   5
Atom  48H    basis set group =>   5
Atom  49H    basis set group =>   5
Atom  50H    basis set group =>   5
Atom  51H    basis set group =>   5
Atom  52H    basis set group =>   5
Atom  53H    basis set group =>   5
Atom  54H    basis set group =>   5
Atom  55H    basis set group =>   5
Atom  56H    basis set group =>   5
Atom  57H    basis set group =>   5
Atom  58H    basis set group =>   5
Atom  59H    basis set group =>   5
Atom  60H    basis set group =>   5
Atom  61H    basis set group =>   5
Atom  62H    basis set group =>   5
Atom  63H    basis set group =>   5
Atom  64H    basis set group =>   5
Atom  65H    basis set group =>   5
-------------------------
ECP PARAMETER INFORMATION
-------------------------

 Group 1, Type Ru ECP Def2-ECP (replacing 28 core electrons, lmax=3)

Atom   0Ru   ECP group =>   1



           ************************************************************
           *        Program running with 24 parallel MPI-processes    *
           *              working on a common directory               *
           ************************************************************
------------------------------------------------------------------------------
                           ORCA GTO INTEGRAL CALCULATION
------------------------------------------------------------------------------

                         BASIS SET STATISTICS AND STARTUP INFO

 # of primitive gaussian shells          ...  954
 # of primitive gaussian functions       ... 2198
 # of contracted shells                  ...  627
 # of contracted basis functions         ... 1685
 Highest angular momentum                ...    4
 Maximum contraction depth               ...    8
 Integral package used                   ... LIBINT
 Integral threshhold            Thresh   ...  1.000e-10
 Primitive cut-off              TCut     ...  1.000e-11


------------------------------ INTEGRAL EVALUATION ----------------------------


 * One electron integrals 

   ECP integrals                         ... done
 Pre-screening matrix                    ... done
 Shell pair data                         ... done (   0.050 sec)



           ************************************************************
           *        Program running with 24 parallel MPI-processes    *
           *              working on a common directory               *
           ************************************************************
-------------------------------------------------------------------------------
                                 ORCA SCF
-------------------------------------------------------------------------------

------------
SCF SETTINGS
------------
Hamiltonian:
 Density Functional     Method          .... DFT(GTOs)
 Exchange Functional    Exchange        .... WB97M-V
 Correlation Functional Correlation     .... WB97M-V
 Gradients option       PostSCFGGA      .... off
 Hybrid DFT is turned on
   Fraction HF Exchange ScalHFX         ....  0.150000
   Scaling of DF-GGA-X  ScalDFX         ....  0.000000
   Scaling of DF-GGA-C  ScalDFC         ....  1.000000
   Scaling of DF-LDA-C  ScalLDAC        ....  1.000000
   Perturbative correction              ....  0.000000
   Density functional embedding theory  .... OFF
 Long-range corrected/Screened/Range-Separated Hybrid DFT is turned on
   Amount of maximum screened exact exchange              ....  0.850000
   Range separation parameter mu (erf(mu*r12)/r12)        ....  0.300000
   NL short-range parameter             ....  6.000000
   NL long-range parameter              ....  0.010000


General Settings:
 Integral files         IntName         .... MOR34_pr35
 Hartree-Fock type      HFTyp           .... RHF
 Total Charge           Charge          ....    0
 Multiplicity           Mult            ....    1
 Number of Electrons    NEL             ....  260
 Basis Dimension        Dim             .... 1685
 Nuclear Repulsion      ENuc            ....   4329.4739997656 Eh

Convergence Acceleration:
 DIIS                   CNVDIIS         .... on
   Start iteration      DIISMaxIt       ....    12
   Startup error        DIISStart       ....  0.200000
   # of expansion vecs  DIISMaxEq       ....     5
   Bias factor          DIISBfac        ....   1.050
   Max. coefficient     DIISMaxC        ....  10.000
 Newton-Raphson         CNVNR           .... off
 SOSCF                  CNVSOSCF        .... off
 Level Shifting         CNVShift        .... on
   Level shift para.    LevelShift      ....    0.2500
   Turn off err/grad.   ShiftErr        ....    0.0010
 Zerner damping         CNVZerner       .... off
 Static damping         CNVDamp         .... on
   Fraction old density DampFac         ....    0.7000
   Max. Damping (<1)    DampMax         ....    0.9800
   Min. Damping (>=0)   DampMin         ....    0.0000
   Turn off err/grad.   DampErr         ....    0.1000
 Fernandez-Rico         CNVRico         .... off

SCF Procedure:
 Maximum # iterations   MaxIter         ....   125
 SCF integral mode      SCFMode         .... Direct
   Integral package                     .... LIBINT
 Reset frequency        DirectResetFreq ....    20
 Integral Threshold     Thresh          ....  1.000e-10 Eh
 Primitive CutOff       TCut            ....  1.000e-11 Eh

Convergence Tolerance:
 Convergence Check Mode ConvCheckMode   .... Total+1el-Energy
 Convergence forced     ConvForced      .... 0
 Energy Change          TolE            ....  1.000e-06 Eh
 1-El. energy change                    ....  1.000e-03 Eh
 DIIS Error             TolErr          ....  1.000e-06


Diagonalization of the overlap matrix:
Smallest eigenvalue                        ... 3.615e-07
Time for diagonalization                   ...    0.363 sec
Threshold for overlap eigenvalues          ... 1.000e-08
Number of eigenvalues below threshold      ... 0
Time for construction of square roots      ...    0.380 sec
Total time needed                          ...    0.753 sec

-------------------
DFT GRID GENERATION
-------------------

General Integration Accuracy     IntAcc      ...  4.670
Radial Grid Type                 RadialGrid  ... Gauss-Chebyshev
Angular Grid (max. acc.)         AngularGrid ... Lebedev-302
Angular grid pruning method      GridPruning ... 3 (G Style)
Weight generation scheme         WeightScheme... Becke
Basis function cutoff            BFCut       ...    1.0000e-10
Integration weight cutoff        WCut        ...    1.0000e-14
Grids for H and He will be reduced by one unit

# of grid points (after initial pruning)     ... 301902 (   0.0 sec)
# of grid points (after weights+screening)   ... 255311 (   0.3 sec)
nearest neighbour list constructed           ...    0.0 sec
Grid point re-assignment to atoms done       ...    0.0 sec
Grid point division into batches done        ...    0.7 sec
Reduced shell lists constructed in    1.3 sec

Total number of grid points                  ...   255311
Total number of batches                      ...     4022
Average number of points per batch           ...       63
Average number of grid points per atom       ...     3868
Average number of shells per batch           ...   345.09 (55.04%)
Average number of basis functions per batch  ...   897.73 (53.28%)
Average number of large shells per batch     ...   243.66 (70.61%)
Average number of large basis fcns per batch ...   642.59 (71.58%)
Maximum spatial batch extension              ...  10.75,  3.61,  8.87 au
Average spatial batch extension              ...   0.06,  0.05,  0.05 au

Time for grid setup =    1.731 sec

------------------------------
INITIAL GUESS: MODEL POTENTIAL
------------------------------
Loading Hartree-Fock densities                     ... done
  calling /sw/apps/orca/orca_4_2_0_linux_x86-64_openmpi314/orca MOR34_pr35_atom44.inp > MOR34_pr35_atom44.out in order to generate an atomic fitting density for atom 0 (Ru with ECP) on-the-fly... 
    atom 0 (Ru), assumed electronic state with S=5: 1s2 2s2 2p6 3s2 3p6 4s2 3d10 4p6 5s2 4d6           ... done
Calculating cut-offs                               ... done
Setting up the integral package                    ... done
Initializing the effective Hamiltonian             ... done
Starting the Coulomb interaction                   ... done (   0.6 sec)
Reading the grid                                   ... done
Mapping shells                                     ... done
Starting the XC term evaluation                    ... done (   1.6 sec)
  promolecular density results
     # of electrons  =    287.983184751
     EX              =   -408.663005601
     EC              =    -11.237707205
     EX+EC           =   -419.900712806
Transforming the Hamiltonian                       ... done (   0.2 sec)
Diagonalizing the Hamiltonian                      ... done (   0.4 sec)
Back transforming the eigenvectors                 ... done (   0.1 sec)
Now organizing SCF variables                       ... done
                      ------------------
                      INITIAL GUESS DONE (   5.9 sec)
                      ------------------
--------------
SCF ITERATIONS
--------------
ITER       Energy         Delta-E        Max-DP      RMS-DP      [F,P]     Damp
               ***  Starting incremental Fock matrix formation  ***
  0  -4572.9304910510   0.000000000000 0.86061055  0.00217237  0.4330355 0.7000
  1  -4573.3135845780  -0.383093526943 0.46751418  0.00166029  0.3032687 0.7000
  2  -4573.5112586639  -0.197674085879 0.35038293  0.00124316  0.2117260 0.7000
                               ***Turning on DIIS***
  3  -4573.6255584908  -0.114299826931 0.29163248  0.00094927  0.1483483 0.7000
  4  -4573.7014575717  -0.075899080905 0.44225476  0.00073705  0.1043343 0.7000
  5  -4573.7544461333  -0.052988561632 1.05604521  0.00167602  0.0735902 0.0000
  6  -4573.8787681732  -0.124322039834 0.14431977  0.00022049  0.0034757 0.0000
  7  -4573.8790448941  -0.000276720963 0.64472657  0.00056478  0.0019220 0.0000
  8  -4573.8791438197  -0.000098925613 0.14472838  0.00019228  0.0013517 0.0000
  9  -4573.8791878185  -0.000043998793 0.08420558  0.00017329  0.0006393 0.0000
 10  -4573.8792037510  -0.000015932441 0.18105953  0.00017788  0.0005275 0.0000
 11  -4573.8792047525  -0.000001001474 0.04591093  0.00009294  0.0005396 0.0000
 12  -4573.8792052121  -0.000000459682 0.07182038  0.00014279  0.0002680 0.0000
 13  -4573.8792048529   0.000000359226 0.09302632  0.00014863  0.0000681 0.0000
 14  -4573.8792044187   0.000000434258 0.24994449  0.00025546  0.0000252 0.0000
                 **** Energy Check signals convergence ****

               *****************************************************
               *                     SUCCESS                       *
               *           SCF CONVERGED AFTER  15 CYCLES          *
               *****************************************************


Setting up the DFT-NL grid :

General Integration Accuracy     IntAcc      ...  4.340
Radial Grid Type                 RadialGrid  ... Gauss-Chebyshev
Angular Grid (max. acc.)         AngularGrid ... Lebedev-110
Angular grid pruning method      GridPruning ... 3 (G Style)
Weight generation scheme         WeightScheme... Becke
Basis function cutoff            BFCut       ...    1.0000e-10
Integration weight cutoff        WCut        ...    1.0000e-14
Grids for H and He will be reduced by one unit

# of grid points (after initial pruning)     ...  76610 (   0.0 sec)
# of grid points (after weights+screening)   ...  66421 (   0.1 sec)
nearest neighbour list constructed           ...    0.0 sec
Grid point re-assignment to atoms done       ...    0.0 sec
Grid point division into batches done        ...    0.0 sec
Reduced shell lists constructed in    0.2 sec

Total number of grid points                  ...    66421
Total number of batches                      ...     1068
Average number of points per batch           ...       62
Average number of grid points per atom       ...     1006
Average number of shells per batch           ...   355.43 (56.69%)
Average number of basis functions per batch  ...   930.30 (55.21%)
Average number of large shells per batch     ...   252.15 (70.94%)
Average number of large basis fcns per batch ...   667.07 (71.70%)
Maximum spatial batch extension              ...   4.51,  4.29,  4.27 au
Average spatial batch extension              ...   0.08,  0.07,  0.07 au

Final grid set up in    0.3 sec

-------------------------------------------------------------------------------
                         DFT-NL dispersion correction                          
-------------------------------------------------------------------------------

SC Energy -4573.879203804 
NL    Energy 0.947112276 
SC+NL Energy -4572.932091527 
NL done in    2.0 sec
-------------------------------------------------------------------------------

----------------
TOTAL SCF ENERGY
----------------

Total Energy       :        -4572.93209153 Eh         -124435.80840 eV

Components:
Nuclear Repulsion  :         4329.47399977 Eh          117810.97693 eV
Electronic Energy  :        -8902.40609129 Eh         -242246.78533 eV
One Electron Energy:       -14992.72105301 Eh         -407972.68078 eV
Two Electron Energy:         6090.31496172 Eh          165725.89545 eV

Virial components:
Potential Energy   :        -9076.32453458 Eh         -246979.34677 eV
Kinetic Energy     :         4503.39244306 Eh          122543.53837 eV
Virial Ratio       :            2.01544161


DFT components:
N(Alpha)           :      130.000820236291 electrons
N(Beta)            :      130.000820236291 electrons
N(Total)           :      260.001640472583 electrons
E(X)               :     -216.192722735579 Eh       
E(C)               :       -9.467055905388 Eh       
NL Energy, E(C,NL) :        0.947112276269 Eh       
E(XC)              :     -224.712666364698 Eh       
DFET-embed. en.    :        0.000000000000 Eh       

---------------
SCF CONVERGENCE
---------------

  Last Energy change         ...    6.1510e-07  Tolerance :   1.0000e-06
  Last MAX-Density change    ...    1.5519e-01  Tolerance :   1.0000e-05
  Last RMS-Density change    ...    1.8424e-04  Tolerance :   1.0000e-06
  Last DIIS Error            ...    5.4326e-06  Tolerance :   1.0000e-06

             **** THE GBW FILE WAS UPDATED (MOR34_pr35.gbw) ****
             **** DENSITY FILE WAS UPDATED (MOR34_pr35.scfp) ****
             **** ENERGY FILE WAS UPDATED (MOR34_pr35.en.tmp) ****
             **** THE GBW FILE WAS UPDATED (MOR34_pr35.gbw) ****
             **** DENSITY FILE WAS UPDATED (MOR34_pr35.scfp) ****
----------------
ORBITAL ENERGIES
----------------

  NO   OCC          E(Eh)            E(eV) 
   0   2.0000    -454.455057    -12366.3508 
   1   2.0000     -77.395524     -2106.0393 
   2   2.0000     -77.388879     -2105.8585 
   3   2.0000     -77.387716     -2105.8268 
   4   2.0000     -77.385336     -2105.7621 
   5   2.0000     -58.306623     -1586.6039 
   6   2.0000     -52.235037     -1421.3876 
   7   2.0000     -52.233344     -1421.3415 
   8   2.0000     -52.232298     -1421.3131 
   9   2.0000     -10.348980      -281.6101 
  10   2.0000     -10.345188      -281.5069 
  11   2.0000     -10.345110      -281.5047 
  12   2.0000     -10.343612      -281.4640 
  13   2.0000     -10.343155      -281.4516 
  14   2.0000     -10.341629      -281.4100 
  15   2.0000     -10.339818      -281.3607 
  16   2.0000     -10.338004      -281.3114 
  17   2.0000     -10.335117      -281.2328 
  18   2.0000     -10.329248      -281.0731 
  19   2.0000     -10.328806      -281.0611 
  20   2.0000     -10.328566      -281.0546 
  21   2.0000     -10.328360      -281.0490 
  22   2.0000     -10.327629      -281.0291 
  23   2.0000     -10.325224      -280.9636 
  24   2.0000     -10.324514      -280.9443 
  25   2.0000     -10.323639      -280.9205 
  26   2.0000     -10.318652      -280.7848 
  27   2.0000      -7.937676      -215.9952 
  28   2.0000      -6.739241      -183.3841 
  29   2.0000      -6.733563      -183.2296 
  30   2.0000      -6.732262      -183.1942 
  31   2.0000      -6.729925      -183.1306 
  32   2.0000      -5.842126      -158.9723 
  33   2.0000      -5.835822      -158.8008 
  34   2.0000      -5.832165      -158.7013 
  35   2.0000      -4.852223      -132.0357 
  36   2.0000      -4.852048      -132.0309 
  37   2.0000      -4.848534      -131.9353 
  38   2.0000      -4.846510      -131.8802 
  39   2.0000      -4.846284      -131.8741 
  40   2.0000      -4.845336      -131.8483 
  41   2.0000      -4.844756      -131.8325 
  42   2.0000      -4.842977      -131.7841 
  43   2.0000      -4.842699      -131.7765 
  44   2.0000      -4.842430      -131.7692 
  45   2.0000      -4.841605      -131.7468 
  46   2.0000      -4.839253      -131.6828 
  47   2.0000      -3.108158       -84.5773 
  48   2.0000      -2.162976       -58.8576 
  49   2.0000      -2.161447       -58.8160 
  50   2.0000      -2.158443       -58.7342 
  51   2.0000      -2.153426       -58.5977 
  52   2.0000      -2.153177       -58.5909 
  53   2.0000      -1.947630       -52.9977 
  54   2.0000      -1.945915       -52.9510 
  55   2.0000      -1.942069       -52.8464 
  56   2.0000      -0.957414       -26.0526 
  57   2.0000      -0.902227       -24.5508 
  58   2.0000      -0.893998       -24.3269 
  59   2.0000      -0.888778       -24.1849 
  60   2.0000      -0.886338       -24.1185 
  61   2.0000      -0.853832       -23.2339 
  62   2.0000      -0.844341       -22.9757 
  63   2.0000      -0.822111       -22.3708 
  64   2.0000      -0.817927       -22.2569 
  65   2.0000      -0.817885       -22.2558 
  66   2.0000      -0.813064       -22.1246 
  67   2.0000      -0.809699       -22.0330 
  68   2.0000      -0.804467       -21.8906 
  69   2.0000      -0.802962       -21.8497 
  70   2.0000      -0.802009       -21.8238 
  71   2.0000      -0.745110       -20.2755 
  72   2.0000      -0.695730       -18.9318 
  73   2.0000      -0.674650       -18.3582 
  74   2.0000      -0.665026       -18.0963 
  75   2.0000      -0.656464       -17.8633 
  76   2.0000      -0.649762       -17.6809 
  77   2.0000      -0.646784       -17.5999 
  78   2.0000      -0.595995       -16.2179 
  79   2.0000      -0.577591       -15.7170 
  80   2.0000      -0.564407       -15.3583 
  81   2.0000      -0.561547       -15.2805 
  82   2.0000      -0.555616       -15.1191 
  83   2.0000      -0.552830       -15.0433 
  84   2.0000      -0.545755       -14.8507 
  85   2.0000      -0.541456       -14.7338 
  86   2.0000      -0.538636       -14.6570 
  87   2.0000      -0.534320       -14.5396 
  88   2.0000      -0.533381       -14.5140 
  89   2.0000      -0.530777       -14.4432 
  90   2.0000      -0.527912       -14.3652 
  91   2.0000      -0.526436       -14.3251 
  92   2.0000      -0.520590       -14.1660 
  93   2.0000      -0.511401       -13.9159 
  94   2.0000      -0.508791       -13.8449 
  95   2.0000      -0.507440       -13.8081 
  96   2.0000      -0.504114       -13.7176 
  97   2.0000      -0.501683       -13.6515 
  98   2.0000      -0.497172       -13.5287 
  99   2.0000      -0.495297       -13.4777 
 100   2.0000      -0.493509       -13.4291 
 101   2.0000      -0.493044       -13.4164 
 102   2.0000      -0.490289       -13.3415 
 103   2.0000      -0.488301       -13.2873 
 104   2.0000      -0.482392       -13.1265 
 105   2.0000      -0.480858       -13.0848 
 106   2.0000      -0.466876       -12.7043 
 107   2.0000      -0.458468       -12.4756 
 108   2.0000      -0.442927       -12.0527 
 109   2.0000      -0.440839       -11.9958 
 110   2.0000      -0.439148       -11.9498 
 111   2.0000      -0.434081       -11.8120 
 112   2.0000      -0.428575       -11.6621 
 113   2.0000      -0.423578       -11.5261 
 114   2.0000      -0.420191       -11.4340 
 115   2.0000      -0.419655       -11.4194 
 116   2.0000      -0.419151       -11.4057 
 117   2.0000      -0.414871       -11.2892 
 118   2.0000      -0.407063       -11.0768 
 119   2.0000      -0.401136       -10.9155 
 120   2.0000      -0.375841       -10.2272 
 121   2.0000      -0.360087        -9.7985 
 122   2.0000      -0.336324        -9.1518 
 123   2.0000      -0.322018        -8.7625 
 124   2.0000      -0.321490        -8.7482 
 125   2.0000      -0.317778        -8.6472 
 126   2.0000      -0.311742        -8.4829 
 127   2.0000      -0.302256        -8.2248 
 128   2.0000      -0.280604        -7.6356 
 129   2.0000      -0.240760        -6.5514 
 130   0.0000       0.020567         0.5597 
 131   0.0000       0.032698         0.8897 
 132   0.0000       0.034728         0.9450 
 133   0.0000       0.037822         1.0292 
 134   0.0000       0.047191         1.2841 
 135   0.0000       0.049028         1.3341 
 136   0.0000       0.051666         1.4059 
 137   0.0000       0.053139         1.4460 
 138   0.0000       0.056158         1.5281 
 139   0.0000       0.066791         1.8175 
 140   0.0000       0.069354         1.8872 
 141   0.0000       0.070569         1.9203 
 142   0.0000       0.072217         1.9651 
 143   0.0000       0.073714         2.0059 
 144   0.0000       0.078087         2.1249 
 145   0.0000       0.082272         2.2387 
 146   0.0000       0.085093         2.3155 
 147   0.0000       0.086625         2.3572 
 148   0.0000       0.088884         2.4186 
 149   0.0000       0.090060         2.4507 
 150   0.0000       0.093053         2.5321 
 151   0.0000       0.097919         2.6645 
 152   0.0000       0.100871         2.7448 
 153   0.0000       0.102660         2.7935 
 154   0.0000       0.105762         2.8779 
 155   0.0000       0.107933         2.9370 
 156   0.0000       0.111555         3.0356 
 157   0.0000       0.115311         3.1378 
 158   0.0000       0.123016         3.3474 
 159   0.0000       0.125804         3.4233 
 160   0.0000       0.126404         3.4396 
 161   0.0000       0.129656         3.5281 
 162   0.0000       0.131061         3.5663 
 163   0.0000       0.133906         3.6438 
 164   0.0000       0.137420         3.7394 
 165   0.0000       0.141471         3.8496 
 166   0.0000       0.144700         3.9375 
 167   0.0000       0.146619         3.9897 
 168   0.0000       0.147656         4.0179 
 169   0.0000       0.148022         4.0279 
 170   0.0000       0.151086         4.1113 
 171   0.0000       0.153501         4.1770 
 172   0.0000       0.154841         4.2134 
 173   0.0000       0.158035         4.3004 
 174   0.0000       0.159360         4.3364 
 175   0.0000       0.161856         4.4043 
 176   0.0000       0.162786         4.4296 
 177   0.0000       0.164230         4.4689 
 178   0.0000       0.167722         4.5639 
 179   0.0000       0.170403         4.6369 
 180   0.0000       0.171438         4.6651 
 181   0.0000       0.176176         4.7940 
 182   0.0000       0.178687         4.8623 
 183   0.0000       0.179419         4.8822 
 184   0.0000       0.181531         4.9397 
 185   0.0000       0.183827         5.0022 
 186   0.0000       0.184455         5.0193 
 187   0.0000       0.188135         5.1194 
 188   0.0000       0.189927         5.1682 
 189   0.0000       0.194144         5.2829 
 190   0.0000       0.195433         5.3180 
 191   0.0000       0.198584         5.4038 
 192   0.0000       0.202242         5.5033 
 193   0.0000       0.203849         5.5470 
 194   0.0000       0.204966         5.5774 
 195   0.0000       0.208376         5.6702 
 196   0.0000       0.209910         5.7119 
 197   0.0000       0.213043         5.7972 
 198   0.0000       0.215614         5.8672 
 199   0.0000       0.217497         5.9184 
 200   0.0000       0.218682         5.9506 
 201   0.0000       0.220450         5.9987 
 202   0.0000       0.222941         6.0665 
 203   0.0000       0.224404         6.1063 
 204   0.0000       0.227483         6.1901 
 205   0.0000       0.229499         6.2450 
 206   0.0000       0.231510         6.2997 
 207   0.0000       0.233503         6.3539 
 208   0.0000       0.235026         6.3954 
 209   0.0000       0.237042         6.4502 
 210   0.0000       0.242962         6.6113 
 211   0.0000       0.243723         6.6321 
 212   0.0000       0.246975         6.7205 
 213   0.0000       0.249175         6.7804 
 214   0.0000       0.250463         6.8155 
 215   0.0000       0.252941         6.8829 
 216   0.0000       0.254644         6.9292 
 217   0.0000       0.257349         7.0028 
 218   0.0000       0.258600         7.0369 
 219   0.0000       0.259157         7.0520 
 220   0.0000       0.261794         7.1238 
 221   0.0000       0.265487         7.2243 
 222   0.0000       0.265887         7.2351 
 223   0.0000       0.268170         7.2973 
 224   0.0000       0.270116         7.3502 
 225   0.0000       0.271703         7.3934 
 226   0.0000       0.274542         7.4707 
 227   0.0000       0.274900         7.4804 
 228   0.0000       0.276757         7.5310 
 229   0.0000       0.278476         7.5777 
 230   0.0000       0.280678         7.6376 
 231   0.0000       0.281735         7.6664 
 232   0.0000       0.284539         7.7427 
 233   0.0000       0.287718         7.8292 
 234   0.0000       0.289612         7.8808 
 235   0.0000       0.290979         7.9179 
 236   0.0000       0.294001         8.0002 
 237   0.0000       0.296536         8.0692 
 238   0.0000       0.297784         8.1031 
 239   0.0000       0.298561         8.1242 
 240   0.0000       0.300464         8.1760 
 241   0.0000       0.301654         8.2084 
 242   0.0000       0.304928         8.2975 
 243   0.0000       0.306949         8.3525 
 244   0.0000       0.309348         8.4178 
 245   0.0000       0.311903         8.4873 
 246   0.0000       0.313323         8.5260 
 247   0.0000       0.314082         8.5466 
 248   0.0000       0.315645         8.5891 
 249   0.0000       0.318240         8.6597 
 250   0.0000       0.318973         8.6797 
 251   0.0000       0.321112         8.7379 
 252   0.0000       0.322061         8.7637 
 253   0.0000       0.324998         8.8437 
 254   0.0000       0.326792         8.8925 
 255   0.0000       0.328397         8.9361 
 256   0.0000       0.330080         8.9819 
 257   0.0000       0.331015         9.0074 
 258   0.0000       0.333111         9.0644 
 259   0.0000       0.334633         9.1058 
 260   0.0000       0.337476         9.1832 
 261   0.0000       0.338570         9.2130 
 262   0.0000       0.339723         9.2443 
 263   0.0000       0.340882         9.2759 
 264   0.0000       0.342801         9.3281 
 265   0.0000       0.344776         9.3818 
 266   0.0000       0.345360         9.3977 
 267   0.0000       0.350761         9.5447 
 268   0.0000       0.351280         9.5588 
 269   0.0000       0.351845         9.5742 
 270   0.0000       0.353883         9.6296 
 271   0.0000       0.355172         9.6647 
 272   0.0000       0.355832         9.6827 
 273   0.0000       0.359013         9.7692 
 274   0.0000       0.360495         9.8096 
 275   0.0000       0.362651         9.8682 
 276   0.0000       0.366889         9.9836 
 277   0.0000       0.369716        10.0605 
 278   0.0000       0.371011        10.0957 
 279   0.0000       0.372672        10.1409 
 280   0.0000       0.373968        10.1762 
 281   0.0000       0.375406        10.2153 
 282   0.0000       0.377673        10.2770 
 283   0.0000       0.379186        10.3182 
 284   0.0000       0.381628        10.3846 
 285   0.0000       0.381934        10.3930 
 286   0.0000       0.385279        10.4840 
 287   0.0000       0.387020        10.5314 
 288   0.0000       0.388301        10.5662 
 289   0.0000       0.389905        10.6099 
 290   0.0000       0.391909        10.6644 
 291   0.0000       0.393773        10.7151 
 292   0.0000       0.396022        10.7763 
 293   0.0000       0.398257        10.8371 
 294   0.0000       0.400307        10.8929 
 295   0.0000       0.400927        10.9098 
 296   0.0000       0.405260        11.0277 
 297   0.0000       0.407045        11.0763 
 298   0.0000       0.407726        11.0948 
 299   0.0000       0.409934        11.1549 
 300   0.0000       0.410312        11.1652 
 301   0.0000       0.413390        11.2489 
 302   0.0000       0.416211        11.3257 
 303   0.0000       0.418472        11.3872 
 304   0.0000       0.420009        11.4290 
 305   0.0000       0.422096        11.4858 
 306   0.0000       0.423589        11.5264 
 307   0.0000       0.425237        11.5713 
 308   0.0000       0.428044        11.6477 
 309   0.0000       0.428809        11.6685 
 310   0.0000       0.430367        11.7109 
 311   0.0000       0.432111        11.7583 
 312   0.0000       0.435068        11.8388 
 313   0.0000       0.436421        11.8756 
 314   0.0000       0.438543        11.9334 
 315   0.0000       0.440650        11.9907 
 316   0.0000       0.441369        12.0103 
 317   0.0000       0.443395        12.0654 
 318   0.0000       0.447538        12.1781 
 319   0.0000       0.448774        12.2118 
 320   0.0000       0.450883        12.2691 
 321   0.0000       0.451841        12.2952 
 322   0.0000       0.454055        12.3555 
 323   0.0000       0.455969        12.4076 
 324   0.0000       0.457542        12.4503 
 325   0.0000       0.458521        12.4770 
 326   0.0000       0.460370        12.5273 
 327   0.0000       0.461756        12.5650 
 328   0.0000       0.465126        12.6567 
 329   0.0000       0.466635        12.6978 
 330   0.0000       0.468841        12.7578 
 331   0.0000       0.471083        12.8188 
 332   0.0000       0.472444        12.8559 
 333   0.0000       0.475991        12.9524 
 334   0.0000       0.477191        12.9850 
 335   0.0000       0.478675        13.0254 
 336   0.0000       0.480757        13.0821 
 337   0.0000       0.481695        13.1076 
 338   0.0000       0.482956        13.1419 
 339   0.0000       0.486011        13.2250 
 340   0.0000       0.487408        13.2631 
 341   0.0000       0.489325        13.3152 
 342   0.0000       0.491354        13.3704 
 343   0.0000       0.495158        13.4739 
 344   0.0000       0.496313        13.5054 
 345   0.0000       0.498217        13.5572 
 346   0.0000       0.500481        13.6188 
 347   0.0000       0.503381        13.6977 
 348   0.0000       0.505914        13.7666 
 349   0.0000       0.507043        13.7974 
 350   0.0000       0.509964        13.8768 
 351   0.0000       0.512438        13.9442 
 352   0.0000       0.514698        14.0056 
 353   0.0000       0.515360        14.0237 
 354   0.0000       0.517210        14.0740 
 355   0.0000       0.519937        14.1482 
 356   0.0000       0.522711        14.2237 
 357   0.0000       0.524433        14.2705 
 358   0.0000       0.526229        14.3194 
 359   0.0000       0.529351        14.4044 
 360   0.0000       0.531064        14.4510 
 361   0.0000       0.534267        14.5381 
 362   0.0000       0.535208        14.5638 
 363   0.0000       0.536445        14.5974 
 364   0.0000       0.537411        14.6237 
 365   0.0000       0.540809        14.7162 
 366   0.0000       0.541878        14.7452 
 367   0.0000       0.542898        14.7730 
 368   0.0000       0.546002        14.8575 
 369   0.0000       0.547645        14.9022 
 370   0.0000       0.551066        14.9953 
 371   0.0000       0.551235        14.9999 
 372   0.0000       0.553548        15.0628 
 373   0.0000       0.557963        15.1830 
 374   0.0000       0.559607        15.2277 
 375   0.0000       0.561726        15.2853 
 376   0.0000       0.564394        15.3579 
 377   0.0000       0.566396        15.4124 
 378   0.0000       0.567055        15.4303 
 379   0.0000       0.570678        15.5289 
 380   0.0000       0.571443        15.5498 
 381   0.0000       0.574978        15.6460 
 382   0.0000       0.575690        15.6653 
 383   0.0000       0.577698        15.7200 
 384   0.0000       0.580984        15.8094 
 385   0.0000       0.581727        15.8296 
 386   0.0000       0.584934        15.9169 
 387   0.0000       0.588173        16.0050 
 388   0.0000       0.589345        16.0369 
 389   0.0000       0.593339        16.1456 
 390   0.0000       0.595301        16.1990 
 391   0.0000       0.596201        16.2235 
 392   0.0000       0.597585        16.2611 
 393   0.0000       0.599175        16.3044 
 394   0.0000       0.601775        16.3751 
 395   0.0000       0.602579        16.3970 
 396   0.0000       0.604948        16.4615 
 397   0.0000       0.608402        16.5555 
 398   0.0000       0.612462        16.6659 
 399   0.0000       0.613650        16.6983 
 400   0.0000       0.617225        16.7955 
 401   0.0000       0.619671        16.8621 
 402   0.0000       0.621681        16.9168 
 403   0.0000       0.623589        16.9687 
 404   0.0000       0.626340        17.0436 
 405   0.0000       0.627677        17.0800 
 406   0.0000       0.629116        17.1191 
 407   0.0000       0.633165        17.2293 
 408   0.0000       0.636545        17.3213 
 409   0.0000       0.637256        17.3406 
 410   0.0000       0.639004        17.3882 
 411   0.0000       0.640236        17.4217 
 412   0.0000       0.641798        17.4642 
 413   0.0000       0.643866        17.5205 
 414   0.0000       0.646747        17.5989 
 415   0.0000       0.647593        17.6219 
 416   0.0000       0.649763        17.6810 
 417   0.0000       0.650140        17.6912 
 418   0.0000       0.653027        17.7698 
 419   0.0000       0.655320        17.8322 
 420   0.0000       0.658736        17.9251 
 421   0.0000       0.660244        17.9662 
 422   0.0000       0.662962        18.0401 
 423   0.0000       0.665188        18.1007 
 424   0.0000       0.666316        18.1314 
 425   0.0000       0.669871        18.2281 
 426   0.0000       0.671080        18.2610 
 427   0.0000       0.672864        18.3096 
 428   0.0000       0.673416        18.3246 
 429   0.0000       0.675362        18.3775 
 430   0.0000       0.679913        18.5014 
 431   0.0000       0.680469        18.5165 
 432   0.0000       0.681972        18.5574 
 433   0.0000       0.683100        18.5881 
 434   0.0000       0.685200        18.6452 
 435   0.0000       0.690090        18.7783 
 436   0.0000       0.691632        18.8203 
 437   0.0000       0.693742        18.8777 
 438   0.0000       0.694945        18.9104 
 439   0.0000       0.696728        18.9589 
 440   0.0000       0.698036        18.9945 
 441   0.0000       0.700895        19.0723 
 442   0.0000       0.702740        19.1225 
 443   0.0000       0.703761        19.1503 
 444   0.0000       0.705009        19.1843 
 445   0.0000       0.708252        19.2725 
 446   0.0000       0.710228        19.3263 
 447   0.0000       0.711705        19.3665 
 448   0.0000       0.713353        19.4113 
 449   0.0000       0.714087        19.4313 
 450   0.0000       0.715259        19.4632 
 451   0.0000       0.715719        19.4757 
 452   0.0000       0.720690        19.6110 
 453   0.0000       0.721928        19.6446 
 454   0.0000       0.722977        19.6732 
 455   0.0000       0.725401        19.7392 
 456   0.0000       0.726658        19.7734 
 457   0.0000       0.728606        19.8264 
 458   0.0000       0.730346        19.8737 
 459   0.0000       0.730975        19.8909 
 460   0.0000       0.733554        19.9610 
 461   0.0000       0.735198        20.0057 
 462   0.0000       0.736082        20.0298 
 463   0.0000       0.739532        20.1237 
 464   0.0000       0.742293        20.1988 
 465   0.0000       0.743434        20.2299 
 466   0.0000       0.744894        20.2696 
 467   0.0000       0.746531        20.3141 
 468   0.0000       0.747924        20.3520 
 469   0.0000       0.749719        20.4009 
 470   0.0000       0.750872        20.4323 
 471   0.0000       0.751968        20.4621 
 472   0.0000       0.753761        20.5109 
 473   0.0000       0.756237        20.5783 
 474   0.0000       0.758158        20.6305 
 475   0.0000       0.759823        20.6758 
 476   0.0000       0.760334        20.6897 
 477   0.0000       0.761884        20.7319 
 478   0.0000       0.765209        20.8224 
 479   0.0000       0.766377        20.8542 
 480   0.0000       0.768670        20.9166 
 481   0.0000       0.770930        20.9781 
 482   0.0000       0.771189        20.9851 
 483   0.0000       0.773660        21.0524 
 484   0.0000       0.774581        21.0774 
 485   0.0000       0.777328        21.1522 
 486   0.0000       0.779793        21.2193 
 487   0.0000       0.781501        21.2657 
 488   0.0000       0.782553        21.2944 
 489   0.0000       0.783843        21.3295 
 490   0.0000       0.786251        21.3950 
 491   0.0000       0.789021        21.4704 
 492   0.0000       0.789817        21.4920 
 493   0.0000       0.791684        21.5428 
 494   0.0000       0.793670        21.5968 
 495   0.0000       0.796078        21.6624 
 496   0.0000       0.797642        21.7049 
 497   0.0000       0.800330        21.7781 
 498   0.0000       0.802180        21.8284 
 499   0.0000       0.802541        21.8383 
 500   0.0000       0.805036        21.9061 
 501   0.0000       0.806551        21.9474 
 502   0.0000       0.808818        22.0091 
 503   0.0000       0.812711        22.1150 
 504   0.0000       0.814431        22.1618 
 505   0.0000       0.814948        22.1759 
 506   0.0000       0.815578        22.1930 
 507   0.0000       0.818263        22.2661 
 508   0.0000       0.819583        22.3020 
 509   0.0000       0.824203        22.4277 
 510   0.0000       0.827027        22.5045 
 511   0.0000       0.827168        22.5084 
 512   0.0000       0.829312        22.5667 
 513   0.0000       0.831881        22.6366 
 514   0.0000       0.833958        22.6931 
 515   0.0000       0.834493        22.7077 
 516   0.0000       0.838138        22.8069 
 517   0.0000       0.839283        22.8381 
 518   0.0000       0.842543        22.9268 
 519   0.0000       0.843837        22.9620 
 520   0.0000       0.845142        22.9975 
 521   0.0000       0.847519        23.0622 
 522   0.0000       0.849402        23.1134 
 523   0.0000       0.850190        23.1348 
 524   0.0000       0.852733        23.2040 
 525   0.0000       0.855461        23.2783 
 526   0.0000       0.858128        23.3509 
 527   0.0000       0.860732        23.4217 
 528   0.0000       0.863462        23.4960 
 529   0.0000       0.865478        23.5508 
 530   0.0000       0.866102        23.5678 
 531   0.0000       0.866744        23.5853 
 532   0.0000       0.869461        23.6592 
 533   0.0000       0.873019        23.7560 
 534   0.0000       0.874139        23.7865 
 535   0.0000       0.876006        23.8373 
 536   0.0000       0.879733        23.9387 
 537   0.0000       0.881091        23.9757 
 538   0.0000       0.883537        24.0423 
 539   0.0000       0.887131        24.1400 
 540   0.0000       0.888157        24.1680 
 541   0.0000       0.891150        24.2494 
 542   0.0000       0.892269        24.2799 
 543   0.0000       0.893874        24.3235 
 544   0.0000       0.896159        24.3857 
 545   0.0000       0.896643        24.3989 
 546   0.0000       0.903798        24.5936 
 547   0.0000       0.905160        24.6307 
 548   0.0000       0.905721        24.6459 
 549   0.0000       0.907850        24.7039 
 550   0.0000       0.909102        24.7379 
 551   0.0000       0.911808        24.8116 
 552   0.0000       0.914302        24.8794 
 553   0.0000       0.917221        24.9589 
 554   0.0000       0.917804        24.9747 
 555   0.0000       0.919742        25.0275 
 556   0.0000       0.924248        25.1501 
 557   0.0000       0.925701        25.1896 
 558   0.0000       0.926908        25.2225 
 559   0.0000       0.930479        25.3196 
 560   0.0000       0.932646        25.3786 
 561   0.0000       0.937151        25.5012 
 562   0.0000       0.937980        25.5237 
 563   0.0000       0.939980        25.5782 
 564   0.0000       0.944710        25.7069 
 565   0.0000       0.945277        25.7223 
 566   0.0000       0.950037        25.8518 
 567   0.0000       0.954082        25.9619 
 568   0.0000       0.956710        26.0334 
 569   0.0000       0.959345        26.1051 
 570   0.0000       0.962969        26.2037 
 571   0.0000       0.964886        26.2559 
 572   0.0000       0.966400        26.2971 
 573   0.0000       0.968525        26.3549 
 574   0.0000       0.971765        26.4431 
 575   0.0000       0.974082        26.5061 
 576   0.0000       0.978037        26.6137 
 577   0.0000       0.981265        26.7016 
 578   0.0000       0.983115        26.7519 
 579   0.0000       0.984251        26.7828 
 580   0.0000       0.989535        26.9266 
 581   0.0000       0.994012        27.0484 
 582   0.0000       0.996788        27.1240 
 583   0.0000       0.998402        27.1679 
 584   0.0000       1.004569        27.3357 
 585   0.0000       1.007297        27.4100 
 586   0.0000       1.009436        27.4682 
 587   0.0000       1.014579        27.6081 
 588   0.0000       1.018950        27.7270 
 589   0.0000       1.019784        27.7497 
 590   0.0000       1.021032        27.7837 
 591   0.0000       1.024908        27.8892 
 592   0.0000       1.026951        27.9448 
 593   0.0000       1.030314        28.0363 
 594   0.0000       1.031901        28.0794 
 595   0.0000       1.036733        28.2109 
 596   0.0000       1.040209        28.3055 
 597   0.0000       1.044723        28.4284 
 598   0.0000       1.046473        28.4760 
 599   0.0000       1.047581        28.5061 
 600   0.0000       1.052756        28.6469 
 601   0.0000       1.055963        28.7342 
 602   0.0000       1.057852        28.7856 
 603   0.0000       1.061342        28.8806 
 604   0.0000       1.064576        28.9686 
 605   0.0000       1.068605        29.0782 
 606   0.0000       1.071182        29.1483 
 607   0.0000       1.075539        29.2669 
 608   0.0000       1.077529        29.3211 
 609   0.0000       1.080298        29.3964 
 610   0.0000       1.082655        29.4605 
 611   0.0000       1.086016        29.5520 
 612   0.0000       1.090943        29.6861 
 613   0.0000       1.095928        29.8217 
 614   0.0000       1.096583        29.8395 
 615   0.0000       1.103348        30.0236 
 616   0.0000       1.104014        30.0417 
 617   0.0000       1.107738        30.1431 
 618   0.0000       1.110138        30.2084 
 619   0.0000       1.112558        30.2742 
 620   0.0000       1.118577        30.4380 
 621   0.0000       1.121391        30.5146 
 622   0.0000       1.122951        30.5570 
 623   0.0000       1.127803        30.6891 
 624   0.0000       1.129820        30.7440 
 625   0.0000       1.132757        30.8239 
 626   0.0000       1.137044        30.9405 
 627   0.0000       1.140046        31.0222 
 628   0.0000       1.144548        31.1447 
 629   0.0000       1.148072        31.2406 
 630   0.0000       1.152591        31.3636 
 631   0.0000       1.155432        31.4409 
 632   0.0000       1.159735        31.5580 
 633   0.0000       1.163275        31.6543 
 634   0.0000       1.167820        31.7780 
 635   0.0000       1.169528        31.8245 
 636   0.0000       1.173998        31.9461 
 637   0.0000       1.174718        31.9657 
 638   0.0000       1.178066        32.0568 
 639   0.0000       1.184644        32.2358 
 640   0.0000       1.187952        32.3258 
 641   0.0000       1.191306        32.4171 
 642   0.0000       1.194347        32.4998 
 643   0.0000       1.198999        32.6264 
 644   0.0000       1.200356        32.6633 
 645   0.0000       1.204652        32.7803 
 646   0.0000       1.207906        32.8688 
 647   0.0000       1.209361        32.9084 
 648   0.0000       1.212585        32.9961 
 649   0.0000       1.218174        33.1482 
 650   0.0000       1.223824        33.3019 
 651   0.0000       1.226475        33.3741 
 652   0.0000       1.230062        33.4717 
 653   0.0000       1.235109        33.6090 
 654   0.0000       1.238270        33.6950 
 655   0.0000       1.241782        33.7906 
 656   0.0000       1.248555        33.9749 
 657   0.0000       1.252148        34.0727 
 658   0.0000       1.254929        34.1483 
 659   0.0000       1.258052        34.2333 
 660   0.0000       1.258597        34.2482 
 661   0.0000       1.261661        34.3315 
 662   0.0000       1.265244        34.4290 
 663   0.0000       1.269135        34.5349 
 664   0.0000       1.274306        34.6756 
 665   0.0000       1.274757        34.6879 
 666   0.0000       1.279800        34.8251 
 667   0.0000       1.283158        34.9165 
 668   0.0000       1.286152        34.9980 
 669   0.0000       1.287633        35.0383 
 670   0.0000       1.291727        35.1497 
 671   0.0000       1.297572        35.3087 
 672   0.0000       1.302405        35.4402 
 673   0.0000       1.303425        35.4680 
 674   0.0000       1.304859        35.5070 
 675   0.0000       1.309736        35.6397 
 676   0.0000       1.312812        35.7234 
 677   0.0000       1.314079        35.7579 
 678   0.0000       1.321138        35.9500 
 679   0.0000       1.322428        35.9851 
 680   0.0000       1.326434        36.0941 
 681   0.0000       1.328648        36.1544 
 682   0.0000       1.329464        36.1766 
 683   0.0000       1.332884        36.2696 
 684   0.0000       1.339758        36.4567 
 685   0.0000       1.343758        36.5655 
 686   0.0000       1.347345        36.6631 
 687   0.0000       1.351377        36.7728 
 688   0.0000       1.355893        36.8957 
 689   0.0000       1.357378        36.9361 
 690   0.0000       1.363699        37.1081 
 691   0.0000       1.367471        37.2108 
 692   0.0000       1.371107        37.3097 
 693   0.0000       1.372858        37.3574 
 694   0.0000       1.373775        37.3823 
 695   0.0000       1.375339        37.4249 
 696   0.0000       1.379849        37.5476 
 697   0.0000       1.385215        37.6936 
 698   0.0000       1.392860        37.9017 
 699   0.0000       1.398067        38.0433 
 700   0.0000       1.399824        38.0912 
 701   0.0000       1.403323        38.1864 
 702   0.0000       1.405014        38.2324 
 703   0.0000       1.411012        38.3956 
 704   0.0000       1.413420        38.4611 
 705   0.0000       1.417289        38.5664 
 706   0.0000       1.419254        38.6199 
 707   0.0000       1.422696        38.7135 
 708   0.0000       1.426243        38.8100 
 709   0.0000       1.427858        38.8540 
 710   0.0000       1.430057        38.9138 
 711   0.0000       1.431915        38.9644 
 712   0.0000       1.435255        39.0553 
[...]
      dx2y2   :     0.009566
      dxy     :     0.008651
 41 H s       :     0.696372  s :     0.696372
      pz      :     0.099606  p :     0.338060
      px      :     0.116424
      py      :     0.122030
      dz2     :     0.003329  d :     0.031094
      dxz     :     0.004868
      dyz     :     0.005755
      dx2y2   :     0.009379
      dxy     :     0.007762
 42 H s       :     0.703208  s :     0.703208
      pz      :     0.122820  p :     0.313455
      px      :     0.102546
      py      :     0.088089
      dz2     :     0.009149  d :     0.030829
      dxz     :     0.008736
      dyz     :     0.006648
      dx2y2   :     0.002769
      dxy     :     0.003527
 43 H s       :     0.702851  s :     0.702851
      pz      :     0.126757  p :     0.331568
      px      :     0.108345
      py      :     0.096467
      dz2     :     0.008981  d :     0.031018
      dxz     :     0.008490
      dyz     :     0.006041
      dx2y2   :     0.003429
      dxy     :     0.004076
 44 H s       :     0.694480  s :     0.694480
      pz      :     0.096062  p :     0.359518
      px      :     0.123530
      py      :     0.139926
      dz2     :     0.002953  d :     0.031155
      dxz     :     0.002420
      dyz     :     0.007616
      dx2y2   :     0.009705
      dxy     :     0.008461
 45 H s       :     0.701143  s :     0.701143
      pz      :     0.118639  p :     0.314693
      px      :     0.101517
      py      :     0.094537
      dz2     :     0.008969  d :     0.030955
      dxz     :     0.008477
      dyz     :     0.006324
      dx2y2   :     0.003448
      dxy     :     0.003737
 46 H s       :     0.693883  s :     0.693883
      pz      :     0.093512  p :     0.356144
      px      :     0.129970
      py      :     0.132662
      dz2     :     0.003277  d :     0.031152
      dxz     :     0.003673
      dyz     :     0.006885
      dx2y2   :     0.009591
      dxy     :     0.007726
 47 H s       :     0.693183  s :     0.693183
      pz      :     0.144849  p :     0.351218
      px      :     0.110207
      py      :     0.096163
      dz2     :     0.008413  d :     0.031129
      dxz     :     0.007868
      dyz     :     0.005990
      dx2y2   :     0.003854
      dxy     :     0.005005
 48 H s       :     0.703605  s :     0.703605
      pz      :     0.085754  p :     0.311474
      px      :     0.088399
      py      :     0.137321
      dz2     :     0.002647  d :     0.030826
      dxz     :     0.000313
      dyz     :     0.009745
      dx2y2   :     0.007905
      dxy     :     0.010217
 49 H s       :     0.703992  s :     0.703992
      pz      :     0.130683  p :     0.314613
      px      :     0.087447
      py      :     0.096483
      dz2     :     0.010559  d :     0.031224
      dxz     :     0.008959
      dyz     :     0.008454
      dx2y2   :     0.001820
      dxy     :     0.001433
 50 H s       :     0.675819  s :     0.675819
      pz      :     0.111576  p :     0.369409
      px      :     0.135702
      py      :     0.122131
      dz2     :     0.005497  d :     0.031305
      dxz     :     0.007384
      dyz     :     0.003076
      dx2y2   :     0.008468
      dxy     :     0.006881
 51 H s       :     0.699279  s :     0.699279
      pz      :     0.088549  p :     0.318882
      px      :     0.095498
      py      :     0.134834
      dz2     :     0.003260  d :     0.031128
      dxz     :     0.001151
      dyz     :     0.008541
      dx2y2   :     0.009405
      dxy     :     0.008770
 52 H s       :     0.700678  s :     0.700678
      pz      :     0.106065  p :     0.336846
      px      :     0.135607
      py      :     0.095173
      dz2     :     0.005386  d :     0.031060
      dxz     :     0.008497
      dyz     :     0.001484
      dx2y2   :     0.007341
      dxy     :     0.008353
 53 H s       :     0.694302  s :     0.694302
      pz      :     0.146847  p :     0.349398
      px      :     0.093086
      py      :     0.109465
      dz2     :     0.011072  d :     0.031524
      dxz     :     0.010122
      dyz     :     0.009472
      dx2y2   :     0.000442
      dxy     :     0.000415
 54 H s       :     0.700315  s :     0.700315
      pz      :     0.096541  p :     0.317584
      px      :     0.089555
      py      :     0.131487
      dz2     :     0.003631  d :     0.031158
      dxz     :     0.001718
      dyz     :     0.008634
      dx2y2   :     0.008447
      dxy     :     0.008728
 55 H s       :     0.692518  s :     0.692518
      pz      :     0.107025  p :     0.389932
      px      :     0.125315
      py      :     0.157592
      dz2     :     0.006303  d :     0.031463
      dxz     :     0.007608
      dyz     :     0.004542
      dx2y2   :     0.007184
      dxy     :     0.005826
 56 H s       :     0.695758  s :     0.695758
      pz      :     0.108449  p :     0.348181
      px      :     0.143449
      py      :     0.096283
      dz2     :     0.006448  d :     0.031119
      dxz     :     0.008548
      dyz     :     0.003277
      dx2y2   :     0.005832
      dxy     :     0.007014
 57 H s       :     0.703503  s :     0.703503
      pz      :     0.087451  p :     0.310807
      px      :     0.088186
      py      :     0.135170
      dz2     :     0.003471  d :     0.030802
      dxz     :     0.000440
      dyz     :     0.009035
      dx2y2   :     0.007774
      dxy     :     0.010082
 58 H s       :     0.674473  s :     0.674473
      pz      :     0.096853  p :     0.365964
      px      :     0.139521
      py      :     0.129590
      dz2     :     0.003949  d :     0.031220
      dxz     :     0.007212
      dyz     :     0.002704
      dx2y2   :     0.009685
      dxy     :     0.007670
 59 H s       :     0.700036  s :     0.700036
      pz      :     0.139767  p :     0.325038
      px      :     0.096323
      py      :     0.088948
      dz2     :     0.011111  d :     0.031177
      dxz     :     0.009924
      dyz     :     0.009151
      dx2y2   :     0.000589
      dxy     :     0.000402
 60 H s       :     0.699857  s :     0.699857
      pz      :     0.085683  p :     0.316769
      px      :     0.098813
      py      :     0.132273
      dz2     :     0.003285  d :     0.031086
      dxz     :     0.001781
      dyz     :     0.007864
      dx2y2   :     0.009565
      dxy     :     0.008591
 61 H s       :     0.692858  s :     0.692858
      pz      :     0.151707  p :     0.354666
      px      :     0.099354
      py      :     0.103604
      dz2     :     0.010295  d :     0.031242
      dxz     :     0.009898
      dyz     :     0.008769
      dx2y2   :     0.000939
      dxy     :     0.001340
 62 H s       :     0.695171  s :     0.695171
      pz      :     0.114294  p :     0.342394
      px      :     0.127319
      py      :     0.100781
      dz2     :     0.007537  d :     0.031147
      dxz     :     0.007902
      dyz     :     0.003433
      dx2y2   :     0.005808
      dxy     :     0.006468
 63 H s       :     0.701123  s :     0.701123
      pz      :     0.091424  p :     0.315275
      px      :     0.086356
      py      :     0.137495
      dz2     :     0.002712  d :     0.031058
      dxz     :     0.000478
      dyz     :     0.009751
      dx2y2   :     0.008233
      dxy     :     0.009884
 64 H s       :     0.696544  s :     0.696544
      pz      :     0.112938  p :     0.350081
      px      :     0.141240
      py      :     0.095903
      dz2     :     0.008143  d :     0.031074
      dxz     :     0.007875
      dyz     :     0.004093
      dx2y2   :     0.005427
      dxy     :     0.005537
 65 H s       :     0.692993  s :     0.692993
      pz      :     0.096847  p :     0.382698
      px      :     0.128515
      py      :     0.157336
      dz2     :     0.003982  d :     0.031543
      dxz     :     0.007873
      dyz     :     0.003172
      dx2y2   :     0.009173
      dxy     :     0.007342


                      *****************************
                      * MAYER POPULATION ANALYSIS *
                      *****************************

  NA   - Mulliken gross atomic population
  ZA   - Total nuclear charge
  QA   - Mulliken gross atomic charge
  VA   - Mayer's total valence
  BVA  - Mayer's bonded valence
  FA   - Mayer's free valence

  ATOM       NA         ZA         QA         VA         BVA        FA
  0 Ru    17.6618    16.0000    -1.6618     6.1720     6.1720    -0.0000
  1 Se    34.1131    34.0000    -0.1131     2.0129     2.0129     0.0000
  2 P     13.1368    15.0000     1.8632     1.1756     1.1756    -0.0000
  3 P     13.5227    15.0000     1.4773     1.5576     1.5576     0.0000
  4 P     13.3907    15.0000     1.6093     1.5509     1.5509     0.0000
  5 P     13.6018    15.0000     1.3982     2.1829     2.1829     0.0000
  6 C      5.4308     6.0000     0.5692     1.8060     1.8060     0.0000
  7 C      6.8872     6.0000    -0.8872     3.2258     3.2258     0.0000
  8 C      6.2365     6.0000    -0.2365     3.1821     3.1821     0.0000
  9 C      6.2616     6.0000    -0.2616     3.1592     3.1592     0.0000
 10 C      6.6605     6.0000    -0.6605     3.2682     3.2682     0.0000
 11 C      5.4278     6.0000     0.5722     2.5095     2.5095    -0.0000
 12 C      7.6492     6.0000    -1.6492     3.3087     3.3087     0.0000
 13 C      7.4374     6.0000    -1.4374     3.3885     3.3885     0.0000
 14 C      7.5258     6.0000    -1.5258     3.6473     3.6473     0.0000
 15 C      7.5591     6.0000    -1.5591     3.4854     3.4854     0.0000
 16 C      7.2908     6.0000    -1.2908     3.6664     3.6664    -0.0000
 17 C      7.2774     6.0000    -1.2774     3.4609     3.4609    -0.0000
 18 C      7.2634     6.0000    -1.2634     3.7287     3.7287     0.0000
 19 C      7.4017     6.0000    -1.4017     3.3775     3.3775     0.0000
 20 C      7.3550     6.0000    -1.3550     3.5289     3.5289     0.0000
 21 C      7.3104     6.0000    -1.3104     3.7100     3.7100     0.0000
 22 C      7.3589     6.0000    -1.3589     3.4688     3.4688     0.0000
 23 C      7.1819     6.0000    -1.1819     3.4559     3.4559    -0.0000
 24 H      1.0715     1.0000    -0.0715     0.4342     0.4342     0.0000
 25 H      0.8672     1.0000     0.1328     0.9958     0.9958     0.0000
 26 H      0.8540     1.0000     0.1460     0.9724     0.9724     0.0000
 27 H      0.8669     1.0000     0.1331     0.9934     0.9934     0.0000
 28 H      0.7998     1.0000     0.2002     0.9584     0.9584     0.0000
 29 H      1.2814     1.0000    -0.2814     1.2833     1.2833    -0.0000
 30 H      0.6913     1.0000     0.3087     1.0879     1.0879    -0.0000
 31 H      0.6795     1.0000     0.3205     1.0650     1.0650     0.0000
 32 H      0.4919     1.0000     0.5081     0.8608     0.8608     0.0000
 33 H      0.6490     1.0000     0.3510     1.0616     1.0616     0.0000
 34 H      0.7418     1.0000     0.2582     1.1671     1.1671     0.0000
 35 H      0.4931     1.0000     0.5069     0.8930     0.8930     0.0000
 36 H      0.6419     1.0000     0.3581     1.0895     1.0895     0.0000
 37 H      0.5445     1.0000     0.4555     0.9684     0.9684     0.0000
 38 H      0.7445     1.0000     0.2555     1.0060     1.0060    -0.0000
 39 H      0.5216     1.0000     0.4784     0.8631     0.8631     0.0000
 40 H      0.6908     1.0000     0.3092     1.0981     1.0981     0.0000
 41 H      0.6724     1.0000     0.3276     1.0756     1.0756     0.0000
 42 H      0.5474     1.0000     0.4526     0.9461     0.9461    -0.0000
 43 H      0.7235     1.0000     0.2765     1.1040     1.1040     0.0000
 44 H      0.7061     1.0000     0.2939     0.9948     0.9948    -0.0000
 45 H      0.5229     1.0000     0.4771     0.8955     0.8955    -0.0000
 46 H      0.7148     1.0000     0.2852     1.0652     1.0652     0.0000
 47 H      0.7344     1.0000     0.2656     1.1770     1.1770    -0.0000
 48 H      0.5186     1.0000     0.4814     0.8813     0.8813    -0.0000
 49 H      0.7370     1.0000     0.2630     1.0935     1.0935     0.0000
 50 H      0.8125     1.0000     0.1875     1.1633     1.1633     0.0000
 51 H      0.4862     1.0000     0.5138     0.8479     0.8479    -0.0000
 52 H      0.7650     1.0000     0.2350     1.1874     1.1874     0.0000
 53 H      0.6907     1.0000     0.3093     1.0842     1.0842     0.0000
 54 H      0.4907     1.0000     0.5093     0.8482     0.8482     0.0000
 55 H      0.7918     1.0000     0.2082     1.2421     1.2421     0.0000
 56 H      0.6635     1.0000     0.3365     1.0491     1.0491     0.0000
 57 H      0.4890     1.0000     0.5110     0.8425     0.8425     0.0000
 58 H      0.7668     1.0000     0.2332     1.1125     1.1125     0.0000
 59 H      0.7511     1.0000     0.2489     1.1684     1.1684     0.0000
 60 H      0.4997     1.0000     0.5003     0.8777     0.8777     0.0000
 61 H      0.6672     1.0000     0.3328     1.0478     1.0478     0.0000
 62 H      0.7345     1.0000     0.2655     1.1933     1.1933     0.0000
 63 H      0.5131     1.0000     0.4869     0.8913     0.8913    -0.0000
 64 H      0.6950     1.0000     0.3050     1.0282     1.0282    -0.0000
 65 H      0.7326     1.0000     0.2674     1.1774     1.1774    -0.0000

  Mayer bond orders larger than 0.100000
B(  0-Ru,  1-Se) :   0.5991 B(  0-Ru,  2-P ) :   0.9545 B(  0-Ru,  3-P ) :   0.9464 
B(  0-Ru,  4-P ) :   0.8383 B(  0-Ru,  5-P ) :   1.0393 B(  0-Ru, 12-C ) :   0.1288 
B(  0-Ru, 21-C ) :   0.1150 B(  0-Ru, 24-H ) :   0.7575 B(  0-Ru, 29-H ) :   0.2664 
B(  1-Se,  3-P ) :  -0.3471 B(  1-Se,  4-P ) :   0.1964 B(  1-Se,  5-P ) :   0.1787 
B(  1-Se,  6-C ) :   0.8326 B(  1-Se,  7-C ) :   0.1440 B(  1-Se, 11-C ) :   0.1236 
B(  1-Se, 15-C ) :   0.1052 B(  1-Se, 23-C ) :  -0.1028 B(  1-Se, 29-H ) :   0.2605 
B(  2-P ,  3-P ) :   0.3763 B(  2-P ,  5-P ) :   0.1856 B(  2-P , 13-C ) :   0.3164 
B(  2-P , 14-C ) :   0.3904 B(  2-P , 24-H ) :  -0.2005 B(  2-P , 30-H ) :  -0.1316 
B(  2-P , 31-H ) :  -0.1315 B(  2-P , 38-H ) :  -0.1131 B(  3-P , 15-C ) :   0.2656 
B(  3-P , 16-C ) :   0.3992 B(  3-P , 17-C ) :   0.2604 B(  3-P , 24-H ) :   0.1519 
B(  4-P ,  5-P ) :   0.1978 B(  4-P , 18-C ) :   0.4441 B(  4-P , 19-C ) :   0.2956 
B(  4-P , 20-C ) :   0.4716 B(  4-P , 24-H ) :  -0.1620 B(  4-P , 49-H ) :  -0.1405 
B(  4-P , 52-H ) :  -0.1349 B(  4-P , 56-H ) :  -0.1013 B(  5-P , 21-C ) :   0.4735 
B(  5-P , 22-C ) :   0.3355 B(  5-P , 23-C ) :   0.4266 B(  5-P , 24-H ) :  -0.1432 
B(  5-P , 59-H ) :  -0.1251 B(  6-C ,  7-C ) :   0.8645 B(  6-C , 11-C ) :   0.8093 
B(  6-C , 25-H ) :  -0.1537 B(  6-C , 29-H ) :  -0.5140 B(  7-C ,  8-C ) :   1.2770 
B(  7-C , 10-C ) :   0.1420 B(  7-C , 11-C ) :  -0.2639 B(  7-C , 25-H ) :   1.1120 
B(  8-C ,  9-C ) :   0.9895 B(  8-C , 26-H ) :   1.1055 B(  8-C , 27-H ) :  -0.1048 
B(  9-C , 10-C ) :   1.1227 B(  9-C , 27-H ) :   1.1605 B( 10-C , 11-C ) :   1.0371 
B( 10-C , 27-H ) :  -0.1170 B( 10-C , 28-H ) :   1.0802 B( 11-C , 24-H ) :  -0.1677 
B( 11-C , 28-H ) :  -0.1678 B( 11-C , 29-H ) :   1.1633 B( 12-C , 14-C ) :   0.1560 
B( 12-C , 30-H ) :   1.0691 B( 12-C , 31-H ) :   1.0245 B( 12-C , 32-H ) :   0.7454 
B( 13-C , 14-C ) :   0.1270 B( 13-C , 33-H ) :   0.9742 B( 13-C , 34-H ) :   1.0588 
B( 13-C , 35-H ) :   0.7566 B( 14-C , 36-H ) :   1.0124 B( 14-C , 37-H ) :   0.8249 
B( 14-C , 38-H ) :   1.0076 B( 15-C , 16-C ) :   0.1438 B( 15-C , 17-C ) :   0.1535 
B( 15-C , 39-H ) :   0.7828 B( 15-C , 40-H ) :   1.0338 B( 15-C , 41-H ) :   1.0223 
B( 16-C , 17-C ) :   0.1661 B( 16-C , 42-H ) :   0.8323 B( 16-C , 43-H ) :   1.0451 
B( 16-C , 44-H ) :   0.9713 B( 17-C , 45-H ) :   0.8132 B( 17-C , 46-H ) :   0.9934 
B( 17-C , 47-H ) :   1.0301 B( 18-C , 19-C ) :   0.1218 B( 18-C , 20-C ) :   0.1165 
B( 18-C , 48-H ) :   0.7797 B( 18-C , 49-H ) :   1.0719 B( 18-C , 50-H ) :   1.0751 
B( 19-C , 20-C ) :   0.1404 B( 19-C , 51-H ) :   0.7291 B( 19-C , 52-H ) :   1.1230 
B( 19-C , 53-H ) :   0.9858 B( 20-C , 54-H ) :   0.7442 B( 20-C , 55-H ) :   1.1064 
B( 20-C , 56-H ) :   0.9936 B( 21-C , 22-C ) :   0.1287 B( 21-C , 23-C ) :   0.1342 
B( 21-C , 57-H ) :   0.7243 B( 21-C , 58-H ) :   1.0602 B( 21-C , 59-H ) :   1.1127 
B( 22-C , 23-C ) :   0.1591 B( 22-C , 60-H ) :   0.7576 B( 22-C , 61-H ) :   0.9917 
B( 22-C , 62-H ) :   1.0623 B( 23-C , 63-H ) :   0.7906 B( 23-C , 64-H ) :   0.9794 
B( 23-C , 65-H ) :   1.0599 B( 24-H , 29-H ) :   0.1517 B( 33-H , 34-H ) :   0.1212 
B( 36-H , 37-H ) :   0.1103 B( 40-H , 41-H ) :   0.1073 B( 46-H , 47-H ) :   0.1359 
B( 55-H , 56-H ) :   0.1192 B( 61-H , 62-H ) :   0.1222 

-------
TIMINGS
-------

Total SCF time: 0 days 2 hours 10 min 14 sec 

Total time                  ....    7814.362 sec
Sum of individual times     ....    7808.640 sec  ( 99.9%)

Fock matrix formation       ....    7783.056 sec  ( 99.6%)
  XC integration            ....      51.531 sec  (  0.7% of F)
    Basis function eval.    ....       4.629 sec  (  9.0% of XC)
    Density eval.           ....      21.903 sec  ( 42.5% of XC)
    XC-Functional eval.     ....       0.248 sec  (  0.5% of XC)
    XC-Potential eval.      ....      17.150 sec  ( 33.3% of XC)
Diagonalization             ....       7.701 sec  (  0.1%)
Density matrix formation    ....       0.562 sec  (  0.0%)
Population analysis         ....       0.905 sec  (  0.0%)
Initial guess               ....       4.201 sec  (  0.1%)
Orbital Transformation      ....       0.000 sec  (  0.0%)
Orbital Orthonormalization  ....       0.000 sec  (  0.0%)
DIIS solution               ....      10.153 sec  (  0.1%)
Grid generation             ....       2.061 sec  (  0.0%)

-------------------------   --------------------
FINAL SINGLE POINT ENERGY     -4572.932091527278
-------------------------   --------------------


                            ***************************************
                            *     ORCA property calculations      *
                            ***************************************

                                    ---------------------
                                    Active property flags
                                    ---------------------
   (+) Dipole Moment


------------------------------------------------------------------------------
                       ORCA ELECTRIC PROPERTIES CALCULATION
------------------------------------------------------------------------------

Dipole Moment Calculation                       ... on
Quadrupole Moment Calculation                   ... off
Polarizability Calculation                      ... off
GBWName                                         ... MOR34_pr35.gbw
Electron density file                           ... MOR34_pr35.scfp
The origin for moment calculation is the CENTER OF MASS  = (-0.099001,  0.013782 -0.063208)

-------------
DIPOLE MOMENT
-------------
                                X             Y             Z
Electronic contribution:      6.79317       3.76386      -7.26505
Nuclear contribution   :     -4.37445      -3.89216       7.69405
                        -----------------------------------------
Total Dipole Moment    :      2.41871      -0.12829       0.42900
                        -----------------------------------------
Magnitude (a.u.)       :      2.45981
Magnitude (Debye)      :      6.25235



--------------------
Rotational spectrum 
--------------------
 
Rotational constants in cm-1:     0.006518     0.004113     0.003881 
Rotational constants in MHz :   195.407297   123.317842   116.359449 

 Dipole components along the rotational axes: 
x,y,z [a.u.] :    -2.426514    -0.128244     0.382441 
x,y,z [Debye]:    -6.167709    -0.325970     0.972087 

 

Timings for individual modules:

Sum of individual times         ...     7826.662 sec (= 130.444 min)
GTO integral calculation        ...       11.622 sec (=   0.194 min)   0.1 %
SCF iterations                  ...     7815.040 sec (= 130.251 min)  99.9 %
                             ****ORCA TERMINATED NORMALLY****
TOTAL RUN TIME: 0 days 2 hours 10 minutes 27 seconds 740 msec
