
                                 *****************
                                 * O   R   C   A *
                                 *****************

           --- An Ab Initio, DFT and Semiempirical electronic structure package ---

                  #######################################################
                  #                        -***-                        #
                  #          Department of theory and spectroscopy      #
                  #               Directorship: Frank Neese             #
                  #        Max Planck Institute fuer Kohlenforschung    #
                  #                Kaiser Wilhelm Platz 1               #
                  #                 D-45470 Muelheim/Ruhr               #
                  #                      Germany                        #
                  #                                                     #
                  #                  All rights reserved                #
                  #                        -***-                        #
                  #######################################################


                         Program Version 4.2.0 -  RELEASE  -


 With contributions from (in alphabetic order):
   Daniel Aravena         : Magnetic Suceptibility
   Michael Atanasov       : Ab Initio Ligand Field Theory (pilot matlab implementation)
   Alexander A. Auer      : GIAO ZORA, VPT2
   Ute Becker             : Parallelization
   Giovanni Bistoni       : ED, misc. LED, open-shell LED, HFLED
   Martin Brehm           : Molecular dynamics
   Dmytro Bykov           : SCF Hessian
   Vijay G. Chilkuri      : MRCI spin determinant printing, contributions to CSF-ICE
   Dipayan Datta          : RHF DLPNO-CCSD density
   Achintya Kumar Dutta   : EOM-CC, STEOM-CC
   Dmitry Ganyushin       : Spin-Orbit,Spin-Spin,Magnetic field MRCI
   Miquel Garcia          : C-PCM Hessian, Gaussian charge scheme
   Yang Guo               : DLPNO-NEVPT2, CIM, IAO-localization
   Andreas Hansen         : Spin unrestricted coupled pair/coupled cluster methods
   Benjamin Helmich-Paris : CASSCF linear response (MC-RPA)
   Lee Huntington         : MR-EOM, pCC
   Robert Izsak           : Overlap fitted RIJCOSX, COSX-SCS-MP3, EOM
   Christian Kollmar      : KDIIS, OOCD, Brueckner-CCSD(T), CCSD density
   Simone Kossmann        : Meta GGA functionals, TD-DFT gradient, OOMP2, MP2 Hessian
   Martin Krupicka        : AUTO-CI
   Lucas Lang             : DCDCAS
   Dagmar Lenk            : GEPOL surface, SMD
   Dimitrios Liakos       : Extrapolation schemes; Compound Job, initial MDCI parallelization
   Dimitrios Manganas     : Further ROCIS development; embedding schemes
   Dimitrios Pantazis     : SARC Basis sets
   Taras Petrenko         : DFT Hessian,TD-DFT gradient, ASA, ECA, R-Raman, ABS, FL, XAS/XES, NRVS
   Peter Pinski           : DLPNO-MP2, DLPNO-MP2 Gradient
   Christoph Reimann      : Effective Core Potentials
   Marius Retegan         : Local ZFS, SOC
   Christoph Riplinger    : Optimizer, TS searches, QM/MM, DLPNO-CCSD(T), (RO)-DLPNO pert. Triples
   Tobias Risthaus        : Range-separated hybrids, TD-DFT gradient, RPA, STAB
   Michael Roemelt        : Original ROCIS implementation
   Masaaki Saitow         : Open-shell DLPNO-CCSD energy and density
   Barbara Sandhoefer     : DKH picture change effects
   Avijit Sen             : IP-ROCIS
   Kantharuban Sivalingam : CASSCF convergence, NEVPT2, FIC-MRCI
   Bernardo de Souza      : ESD, SOC TD-DFT
   Georgi Stoychev        : AutoAux, RI-MP2 NMR
   Willem Van den Heuvel  : Paramagnetic NMR
   Boris Wezisla          : Elementary symmetry handling
   Frank Wennmohs         : Technical directorship


 We gratefully acknowledge several colleagues who have allowed us to
 interface, adapt or use parts of their codes:
   Stefan Grimme, W. Hujo, H. Kruse,             : VdW corrections, initial TS optimization,
                  C. Bannwarth                     DFT functionals, gCP, sTDA/sTD-DF
   Ed Valeev, F. Pavosevic, A. Kumar             : LibInt (2-el integral package), F12 methods
   Garnet Chan, S. Sharma, J. Yang, R. Olivares  : DMRG
   Ulf Ekstrom                                   : XCFun DFT Library
   Mihaly Kallay                                 : mrcc  (arbitrary order and MRCC methods)
   Andreas Klamt, Michael Diedenhofen            : otool_cosmo (COSMO solvation model)
   Jiri Pittner, Ondrej Demel                    : Mk-CCSD
   Frank Weinhold                                : gennbo (NPA and NBO analysis)
   Christopher J. Cramer and Donald G. Truhlar   : smd solvation model
   Lars Goerigk                                  : TD-DFT with DH, B97 family of functionals
   V. Asgeirsson, H. Jonsson                     : NEB implementation
   FAccTs GmbH                                   : IRC, NEB, NEB-TS, Multilevel, MM, QM/MM, CI optimization
   S Lehtola, MJT Oliveira, MAL Marques          : LibXC Library


 Your calculation uses the libint2 library for the computation of 2-el integrals
 For citations please refer to: http://libint.valeyev.net

 Your ORCA version has been built with support for libXC version: 4.2.3
 For citations please refer to: https://tddft.org/programs/libxc/

 This ORCA versions uses:
   CBLAS   interface :  Fast vector & matrix operations
   LAPACKE interface :  Fast linear algebra routines
   SCALAPACK package :  Parallel linear algebra routines


Your calculation utilizes the DFT-NL dispersion correction.
Cite in your paper:
Vydrov, O. A.; Van Voorhis, T. J. Chem. Phys. 2010, 133, 244103
Hujo, W.; Grimme, S. J. Chem. Theory Comput. 2011, 7, 3866 
   

----- Orbital basis set information -----
Your calculation utilizes the basis: def2-TZVPPD
   F. Weigend and R. Ahlrichs, Phys. Chem. Chem. Phys. 7, 3297 (2005).
   D. Rappoport and F. Furche, J. Chem. Phys. 133 134105 (2010).

----- AuxJK basis set information -----
Your calculation utilizes the auxiliary basis: def2/JK
   H-Ba, Hf-Rn: F. Weigend, J. Comput. Chem. 29, 167 (2008).

cite the ECPs for Mo [Def2-ECP] as follows:
Ce-Yb(ecp-28): M. Dolg, H. Stoll, H.Preuss, J. Chem. Phys., 1989, 90, 1730-1734.
Y-Cd(ecp-28), Hf-Hg(ecp-46): D. Andrae,U. Haeussermann, M. Dolg, H. Stoll, H. Preuss, Theor. Chim. Acta, 1990, 77, 123-141.
In-Sb(ecp-28), Tl-Bi(ecp-46): B. Metz, H. Stoll, M. Dolg, J. Chem. Phys., 2000, 113, 2563-2569.
Te-Xe(ecp-28), Po-Rn(ecp-46): K. A. Peterson, D. Figgen, E. Goll, H. Stoll, M. Dolg, J. Chem. Phys., 2003, 119, 11113-11123.
Rb(ecp-28), Cs(ecp-46): T. Leininger, A. Nicklass, W. Kuechle, H. Stoll, M. Dolg, A. Bergner, Chem. Phys. Lett., 1996, 255, 274-280.
Sr(ecp-28), Ba(ecp-46): M. Kaupp, P. V. Schleyer, H. Stoll and H. Preuss, J. Chem. Phys., 1991, 94, 1360-1366.
La(ecp-46): M. Dolg, H. Stoll, A. Savin, H. Preuss, Theor. Chim. Acta, 1989, 75, 173-194.
Lu(ecp-28): X. Cao, M. Dolg, J. Chem. Phys., 2001, 115, 7348-7355.

ECP parameters for Mo [Def2-ECP] have been obtained from:
TURBOMOLE (7.0.2)

================================================================================
                                        WARNINGS
                       Please study these warnings very carefully!
================================================================================


INFO   : the flag for use of LIBINT has been found!

================================================================================
                                       INPUT FILE
================================================================================
NAME = MOR37_pr38.in
|  1> #
|  2> # MOR37_pr38 wB97M-V/Def2-TZVPPD
|  3> #
|  4> ! wb97m-v def2-tzvppd def2/jk grid4 nofinalgrid
|  5> 
|  6> *xyz 0 1
|  7> Mo       0.000368   -0.000951   -0.664236 
|  8> C        1.186218    1.095679   -1.824431 
|  9> C       -1.543342    0.475450   -1.823831 
| 10> C        0.358600   -1.578355   -1.821075 
| 11> O        0.584740   -2.492846   -2.512436 
| 12> O        1.864319    1.747384   -2.517871 
| 13> O       -2.447606    0.735637   -2.516687 
| 14> P        1.980785   -0.729448    0.688588 
| 15> P       -1.623545   -1.348294    0.688464 
| 16> P       -0.357708    2.080403    0.685812 
| 17> C       -1.633250    3.223236    0.009653 
| 18> H       -1.705660    4.145387    0.596929 
| 19> H       -2.603028    2.718106    0.000627 
| 20> H       -1.373511    3.465952   -1.024212 
| 21> C       -0.858884    2.043709    2.465539 
| 22> H       -1.825180    1.541749    2.565977 
| 23> H       -0.943418    3.056285    2.875390 
| 24> H       -0.120247    1.484663    3.045786 
| 25> C        1.092608    3.215640    0.782943 
| 26> H        0.848407    4.138527    1.320517 
| 27> H        1.418994    3.459201   -0.231490 
| 28> H        1.920240    2.713456    1.291867 
| 29> C       -1.984130   -3.020964    0.008508 
| 30> H       -2.747676   -3.543086    0.595776 
| 31> H       -1.064326   -3.612180   -0.003877 
| 32> H       -2.325682   -2.913010   -1.024422 
| 33> C       -1.336917   -1.769970    2.466070 
| 34> H       -2.171293   -2.349509    2.876428 
| 35> H       -1.219304   -0.852646    3.048800 
| 36> H       -0.419591   -2.357379    2.562237 
| 37> C       -3.329045   -0.653966    0.792955 
| 38> H       -4.006858   -1.325859    1.330979 
| 39> H       -3.705797   -0.489375   -0.219919 
| 40> H       -3.303097    0.312486    1.304224 
| 41> C        3.608641   -0.198569    0.011444 
| 42> H        4.443241   -0.596886    0.599054 
| 43> H        3.657034    0.893802    0.001026 
| 44> H        3.688452   -0.546249   -1.021993 
| 45> C        2.199807   -0.272940    2.467201 
| 46> H        3.119209   -0.704894    2.877753 
| 47> H        1.346620   -0.631939    3.048604 
| 48> H        2.248134    0.815142    2.564989 
| 49> C        2.238042   -2.552971    0.789569 
| 50> H        3.157648   -2.802349    1.330381 
| 51> H        2.288935   -2.958854   -0.224143 
| 52> H        1.387609   -3.017788    1.296348 
| 53> *
| 54> 
| 55> %maxcore 5000
| 56> 
| 57> %pal
| 58> nprocs = 24
| 59> end
| 60> 
| 61> 
| 62>                          ****END OF INPUT****
================================================================================

                       ****************************
                       * Single Point Calculation *
                       ****************************

---------------------------------
CARTESIAN COORDINATES (ANGSTROEM)
---------------------------------
  Mo     0.000368   -0.000951   -0.664236
  C      1.186218    1.095679   -1.824431
  C     -1.543342    0.475450   -1.823831
  C      0.358600   -1.578355   -1.821075
  O      0.584740   -2.492846   -2.512436
  O      1.864319    1.747384   -2.517871
  O     -2.447606    0.735637   -2.516687
  P      1.980785   -0.729448    0.688588
  P     -1.623545   -1.348294    0.688464
  P     -0.357708    2.080403    0.685812
  C     -1.633250    3.223236    0.009653
  H     -1.705660    4.145387    0.596929
  H     -2.603028    2.718106    0.000627
  H     -1.373511    3.465952   -1.024212
  C     -0.858884    2.043709    2.465539
  H     -1.825180    1.541749    2.565977
  H     -0.943418    3.056285    2.875390
  H     -0.120247    1.484663    3.045786
  C      1.092608    3.215640    0.782943
  H      0.848407    4.138527    1.320517
  H      1.418994    3.459201   -0.231490
  H      1.920240    2.713456    1.291867
  C     -1.984130   -3.020964    0.008508
  H     -2.747676   -3.543086    0.595776
  H     -1.064326   -3.612180   -0.003877
  H     -2.325682   -2.913010   -1.024422
  C     -1.336917   -1.769970    2.466070
  H     -2.171293   -2.349509    2.876428
  H     -1.219304   -0.852646    3.048800
  H     -0.419591   -2.357379    2.562237
  C     -3.329045   -0.653966    0.792955
  H     -4.006858   -1.325859    1.330979
  H     -3.705797   -0.489375   -0.219919
  H     -3.303097    0.312486    1.304224
  C      3.608641   -0.198569    0.011444
  H      4.443241   -0.596886    0.599054
  H      3.657034    0.893802    0.001026
  H      3.688452   -0.546249   -1.021993
  C      2.199807   -0.272940    2.467201
  H      3.119209   -0.704894    2.877753
  H      1.346620   -0.631939    3.048604
  H      2.248134    0.815142    2.564989
  C      2.238042   -2.552971    0.789569
  H      3.157648   -2.802349    1.330381
  H      2.288935   -2.958854   -0.224143
  H      1.387609   -3.017788    1.296348

----------------------------
CARTESIAN COORDINATES (A.U.)
----------------------------
  NO LB      ZA    FRAG     MASS         X           Y           Z
   0 Mo   14.0000*   0    95.940    0.000695   -0.001797   -1.255224
   1 C     6.0000    0    12.011    2.241627    2.070533   -3.447675
   2 C     6.0000    0    12.011   -2.916494    0.898470   -3.446541
   3 C     6.0000    0    12.011    0.677656   -2.982659   -3.441333
   4 O     8.0000    0    15.999    1.104998   -4.710796   -4.747816
   5 O     8.0000    0    15.999    3.523052    3.302077   -4.758087
   6 O     8.0000    0    15.999   -4.625305    1.390152   -4.755849
   7 P    15.0000    0    30.974    3.743141   -1.378457    1.301243
   8 P    15.0000    0    30.974   -3.068055   -2.547906    1.301008
   9 P    15.0000    0    30.974   -0.675970    3.931392    1.295997
  10 C     6.0000    0    12.011   -3.086395    6.091033    0.018242
  11 H     1.0000    0     1.008   -3.223230    7.833646    1.128032
  12 H     1.0000    0     1.008   -4.919010    5.136476    0.001185
  13 H     1.0000    0     1.008   -2.595560    6.549700   -1.935480
  14 C     6.0000    0    12.011   -1.623056    3.862050    4.659193
  15 H     1.0000    0     1.008   -3.449090    2.913483    4.848994
  16 H     1.0000    0     1.008   -1.782802    5.775542    5.433700
  17 H     1.0000    0     1.008   -0.227234    2.805606    5.755701
  18 C     6.0000    0    12.011    2.064730    6.076679    1.479548
  19 H     1.0000    0     1.008    1.603257    7.820683    2.495415
  20 H     1.0000    0     1.008    2.681510    6.536943   -0.437453
  21 H     1.0000    0     1.008    3.628728    5.127689    2.441275
  22 C     6.0000    0    12.011   -3.749462   -5.708795    0.016078
  23 H     1.0000    0     1.008   -5.192355   -6.695462    1.125853
  24 H     1.0000    0     1.008   -2.011285   -6.826031   -0.007326
  25 H     1.0000    0     1.008   -4.394902   -5.504791   -1.935877
  26 C     6.0000    0    12.011   -2.526407   -3.344759    4.660197
  27 H     1.0000    0     1.008   -4.103149   -4.439929    5.435661
  28 H     1.0000    0     1.008   -2.304151   -1.611267    5.761397
  29 H     1.0000    0     1.008   -0.792912   -4.454801    4.841926
  30 C     6.0000    0    12.011   -6.290983   -1.235817    1.498468
  31 H     1.0000    0     1.008   -7.571864   -2.505510    2.515186
  32 H     1.0000    0     1.008   -7.002941   -0.924785   -0.415587
  33 H     1.0000    0     1.008   -6.241949    0.590513    2.464626
  34 C     6.0000    0    12.011    6.819343   -0.375241    0.021626
  35 H     1.0000    0     1.008    8.396509   -1.127951    1.132048
  36 H     1.0000    0     1.008    6.910793    1.689041    0.001939
  37 H     1.0000    0     1.008    6.970164   -1.032261   -1.931287
  38 C     6.0000    0    12.011    4.157033   -0.515782    4.662334
  39 H     1.0000    0     1.008    5.894451   -1.332057    5.438165
  40 H     1.0000    0     1.008    2.544743   -1.194192    5.761027
  41 H     1.0000    0     1.008    4.248358    1.540395    4.847127
  42 C     6.0000    0    12.011    4.229286   -4.824416    1.492069
  43 H     1.0000    0     1.008    5.967090   -5.295672    2.514056
  44 H     1.0000    0     1.008    4.325460   -5.591424   -0.423569
  45 H     1.0000    0     1.008    2.622201   -5.702793    2.449743
* core charge reduced due to ECP

--------------------------------
INTERNAL COORDINATES (ANGSTROEM)
--------------------------------
 Mo     0   0   0     0.000000000000     0.00000000     0.00000000
 C      1   0   0     1.988690528319     0.00000000     0.00000000
 C      1   2   0     1.988632454961    89.46128764     0.00000000
 C      1   2   3     1.988670414363    89.46193183    89.46921956
 O      4   1   2     1.168508930647   178.86812029     6.51846240
 O      2   1   3     1.168503062395   178.85991355     6.37056828
 O      3   1   2     1.168520471965   178.87157847    96.25921765
 P      1   2   3     2.506569797128    90.22935200   176.09041719
 P      1   2   3     2.506436490561   176.04395978     3.70655342
 P      1   2   3     2.506567872090    86.64718269   269.72450756
 C     10   1   2     1.841267403973   114.61760223    82.46228783
 H     11  10   1     1.095672749993   111.79777680   183.74525823
 H     11  10   1     1.093483952722   109.31085116    62.27958480
 H     11  10   1     1.093275922630   108.69202984   304.87730741
 C     10   1   2     1.849311230470   122.72291328   204.27412740
 H     15  10   1     1.093517074883   109.69288201   299.29877108
 H     15  10   1     1.095643187873   111.25810817   178.90985062
 H     15  10   1     1.093070733710   109.74799549    58.14003268
 C     10   1   2     1.844346490545   115.28590184   326.49065573
 H     19  10   1     1.095600451189   111.65749336   175.65121091
 H     19  10   1     1.093125835943   108.84829929    54.61887917
 H     19  10   1     1.093694260320   109.69065585   296.71164414
 C      9   1   3     1.841245945837   114.57707187    82.08546856
 H     23   9   1     1.095672205007   111.80447892   183.84191780
 H     23   9   1     1.093494007893   109.30627646    62.37431477
 H     23   9   1     1.093277741345   108.68624668   304.97624158
 C      9   1   3     1.849283469508   122.74667659   203.89544732
 H     27   9   1     1.095647046298   111.25967410   179.07487836
 H     27   9   1     1.093110420609   109.74015724    58.31476841
 H     27   9   1     1.093519279869   109.69673341   299.47241753
 C      9   1   3     1.844380652323   115.29768154   326.15325644
 H     31   9   1     1.095600516153   111.65623660   175.61830579
 H     31   9   1     1.093135859196   108.83770007    54.59959590
 H     31   9   1     1.093662999909   109.70718450   296.68231823
 C      8   1   2     1.841269036864   114.59706857   352.95688582
 H     35   8   1     1.095672900363   111.80140135   183.81964697
 H     35   8   1     1.093492029607   109.30862855    62.35602212
 H     35   8   1     1.093271791958   108.69201056   304.95470716
 C      8   1   2     1.849279425700   122.74611464   114.75507476
 H     39   8   1     1.095644668870   111.25112146   178.97638609
 H     39   8   1     1.093086358610   109.75801008    58.20780757
 H     39   8   1     1.093535747288   109.68609327   299.35583056
 C      8   1   2     1.844346620877   115.28421321   237.01460190
 H     43   8   1     1.095601296761   111.66331317   175.79199402
 H     43   8   1     1.093134541620   108.83416448    54.76877029
 H     43   8   1     1.093670922087   109.70126913   296.86988779

---------------------------
INTERNAL COORDINATES (A.U.)
---------------------------
 Mo     0   0   0     0.000000000000     0.00000000     0.00000000
 C      1   0   0     3.758080463646     0.00000000     0.00000000
 C      1   2   0     3.757970720905    89.46128764     0.00000000
 C      1   2   3     3.758042453777    89.46193183    89.46921956
 O      4   1   2     2.208161863964   178.86812029     6.51846240
 O      2   1   3     2.208150774574   178.85991355     6.37056828
 O      3   1   2     2.208183673894   178.87157847    96.25921765
 P      1   2   3     4.736730452130    90.22935200   176.09041719
 P      1   2   3     4.736478539228   176.04395978     3.70655342
 P      1   2   3     4.736726814337    86.64718269   269.72450756
 C     10   1   2     3.479491132825   114.61760223    82.46228783
 H     11  10   1     2.070521429887   111.79777680   183.74525823
 H     11  10   1     2.066385202482   109.31085116    62.27958480
 H     11  10   1     2.065992082580   108.69202984   304.87730741
 C     10   1   2     3.494691761972   122.72291328   204.27412740
 H     15  10   1     2.066447794295   109.69288201   299.29877108
 H     15  10   1     2.070465565577   111.25810817   178.90985062
 H     15  10   1     2.065604331717   109.74799549    58.14003268
 C     10   1   2     3.485309763189   115.28590184   326.49065573
 H     19  10   1     2.070384804948   111.65749336   175.65121091
 H     19  10   1     2.065708459846   108.84829929    54.61887917
 H     19  10   1     2.066782626246   109.69065585   296.71164414
 C      9   1   3     3.479450582825   114.57707187    82.08546856
 H     23   9   1     2.070520400012   111.80447892   183.84191780
 H     23   9   1     2.066404204001   109.30627646    62.37431477
 H     23   9   1     2.065995519454   108.68624668   304.97624158
 C      9   1   3     3.494639301358   122.74667659   203.89544732
 H     27   9   1     2.070472856942   111.25967410   179.07487836
 H     27   9   1     2.065679329087   109.74015724    58.31476841
 H     27   9   1     2.066451961116   109.69673341   299.47241753
 C      9   1   3     3.485374319594   115.29768154   326.15325644
 H     31   9   1     2.070384927711   111.65623660   175.61830579
 H     31   9   1     2.065727401050   108.83770007    54.59959590
 H     31   9   1     2.066723552630   109.70718450   296.68231823
 C      8   1   2     3.479494218541   114.59706857   352.95688582
 H     35   8   1     2.070521714045   111.80140135   183.81964697
 H     35   8   1     2.066400465583   109.30862855    62.35602212
 H     35   8   1     2.065984276741   108.69201056   304.95470716
 C      8   1   2     3.494631659668   122.74611464   114.75507476
 H     39   8   1     2.070468364256   111.25112146   178.97638609
 H     39   8   1     2.065633858498   109.75801008    58.20780757
 H     39   8   1     2.066483080027   109.68609327   299.35583056
 C      8   1   2     3.485310009480   115.28421321   237.01460190
 H     43   8   1     2.070386402847   111.66331317   175.79199402
 H     43   8   1     2.065724911191   108.83416448    54.76877029
 H     43   8   1     2.066738523378   109.70126913   296.86988779

---------------------
BASIS SET INFORMATION
---------------------
There are 5 groups of distinct atoms

 Group   1 Type Mo  : 7s7p5d2f1g contracted to 6s4p3d2f1g pattern {211111/4111/311/11/1}
 Group   2 Type C   : 12s6p3d1f contracted to 6s3p3d1f pattern {621111/411/111/1}
 Group   3 Type O   : 12s7p3d1f contracted to 6s4p3d1f pattern {621111/4111/111/1}
 Group   4 Type P   : 15s9p4d1f contracted to 6s5p4d1f pattern {732111/51111/1111/1}
 Group   5 Type H   : 5s3p1d contracted to 3s3p1d pattern {311/111/1}

Atom   0Mo   basis set group =>   1
Atom   1C    basis set group =>   2
Atom   2C    basis set group =>   2
Atom   3C    basis set group =>   2
Atom   4O    basis set group =>   3
Atom   5O    basis set group =>   3
Atom   6O    basis set group =>   3
Atom   7P    basis set group =>   4
Atom   8P    basis set group =>   4
Atom   9P    basis set group =>   4
Atom  10C    basis set group =>   2
Atom  11H    basis set group =>   5
Atom  12H    basis set group =>   5
Atom  13H    basis set group =>   5
Atom  14C    basis set group =>   2
Atom  15H    basis set group =>   5
Atom  16H    basis set group =>   5
Atom  17H    basis set group =>   5
Atom  18C    basis set group =>   2
Atom  19H    basis set group =>   5
Atom  20H    basis set group =>   5
Atom  21H    basis set group =>   5
Atom  22C    basis set group =>   2
Atom  23H    basis set group =>   5
Atom  24H    basis set group =>   5
Atom  25H    basis set group =>   5
Atom  26C    basis set group =>   2
Atom  27H    basis set group =>   5
Atom  28H    basis set group =>   5
Atom  29H    basis set group =>   5
Atom  30C    basis set group =>   2
Atom  31H    basis set group =>   5
Atom  32H    basis set group =>   5
Atom  33H    basis set group =>   5
Atom  34C    basis set group =>   2
Atom  35H    basis set group =>   5
Atom  36H    basis set group =>   5
Atom  37H    basis set group =>   5
Atom  38C    basis set group =>   2
Atom  39H    basis set group =>   5
Atom  40H    basis set group =>   5
Atom  41H    basis set group =>   5
Atom  42C    basis set group =>   2
Atom  43H    basis set group =>   5
Atom  44H    basis set group =>   5
Atom  45H    basis set group =>   5
----------------------------------
AUXILIARY/JK BASIS SET INFORMATION
----------------------------------
There are 5 groups of distinct atoms

 Group   1 Type Mo  : 13s12p10d9f6g3h2i contracted to 11s10p9d8f6g3h2i pattern {31111111111/3111111111/211111111/21111111/111111/111/11}
 Group   2 Type C   : 14s10p6d2f1g contracted to 10s8p5d1f1g pattern {5111111111/31111111/21111/2/1}
 Group   3 Type O   : 14s10p6d2f1g contracted to 10s8p4d2f1g pattern {5111111111/31111111/3111/11/1}
 Group   4 Type P   : 16s12p10d4f1g contracted to 13s11p9d4f1g pattern {4111111111111/21111111111/211111111/1111/1}
 Group   5 Type H   : 4s2p2d contracted to 2s2p2d pattern {31/11/11}

Atom   0Mo   basis set group =>   1
Atom   1C    basis set group =>   2
Atom   2C    basis set group =>   2
Atom   3C    basis set group =>   2
Atom   4O    basis set group =>   3
Atom   5O    basis set group =>   3
Atom   6O    basis set group =>   3
Atom   7P    basis set group =>   4
Atom   8P    basis set group =>   4
Atom   9P    basis set group =>   4
Atom  10C    basis set group =>   2
Atom  11H    basis set group =>   5
Atom  12H    basis set group =>   5
Atom  13H    basis set group =>   5
Atom  14C    basis set group =>   2
Atom  15H    basis set group =>   5
Atom  16H    basis set group =>   5
Atom  17H    basis set group =>   5
Atom  18C    basis set group =>   2
Atom  19H    basis set group =>   5
Atom  20H    basis set group =>   5
Atom  21H    basis set group =>   5
Atom  22C    basis set group =>   2
Atom  23H    basis set group =>   5
Atom  24H    basis set group =>   5
Atom  25H    basis set group =>   5
Atom  26C    basis set group =>   2
Atom  27H    basis set group =>   5
Atom  28H    basis set group =>   5
Atom  29H    basis set group =>   5
Atom  30C    basis set group =>   2
Atom  31H    basis set group =>   5
Atom  32H    basis set group =>   5
Atom  33H    basis set group =>   5
Atom  34C    basis set group =>   2
Atom  35H    basis set group =>   5
Atom  36H    basis set group =>   5
Atom  37H    basis set group =>   5
Atom  38C    basis set group =>   2
Atom  39H    basis set group =>   5
Atom  40H    basis set group =>   5
Atom  41H    basis set group =>   5
Atom  42C    basis set group =>   2
Atom  43H    basis set group =>   5
Atom  44H    basis set group =>   5
Atom  45H    basis set group =>   5
-------------------------
ECP PARAMETER INFORMATION
-------------------------

 Group 1, Type Mo ECP Def2-ECP (replacing 28 core electrons, lmax=3)

Atom   0Mo   ECP group =>   1



           ************************************************************
           *        Program running with 24 parallel MPI-processes    *
           *              working on a common directory               *
           ************************************************************
------------------------------------------------------------------------------
                           ORCA GTO INTEGRAL CALCULATION
------------------------------------------------------------------------------

                         BASIS SET STATISTICS AND STARTUP INFO

 # of primitive gaussian shells          ...  685
 # of primitive gaussian functions       ... 1585
 # of contracted shells                  ...  451
 # of contracted basis functions         ... 1223
 Highest angular momentum                ...    4
 Maximum contraction depth               ...    7
 Integral package used                   ... LIBINT
 Integral threshhold            Thresh   ...  1.000e-10
 Primitive cut-off              TCut     ...  1.000e-11


------------------------------ INTEGRAL EVALUATION ----------------------------


 * One electron integrals 

   ECP integrals                         ... done
 Pre-screening matrix                    ... done
 Shell pair data                         ... done (   0.025 sec)



           ************************************************************
           *        Program running with 24 parallel MPI-processes    *
           *              working on a common directory               *
           ************************************************************
-------------------------------------------------------------------------------
                                 ORCA SCF
-------------------------------------------------------------------------------

------------
SCF SETTINGS
------------
Hamiltonian:
 Density Functional     Method          .... DFT(GTOs)
 Exchange Functional    Exchange        .... WB97M-V
 Correlation Functional Correlation     .... WB97M-V
 Gradients option       PostSCFGGA      .... off
 Hybrid DFT is turned on
   Fraction HF Exchange ScalHFX         ....  0.150000
   Scaling of DF-GGA-X  ScalDFX         ....  0.000000
   Scaling of DF-GGA-C  ScalDFC         ....  1.000000
   Scaling of DF-LDA-C  ScalLDAC        ....  1.000000
   Perturbative correction              ....  0.000000
   Density functional embedding theory  .... OFF
 Long-range corrected/Screened/Range-Separated Hybrid DFT is turned on
   Amount of maximum screened exact exchange              ....  0.850000
   Range separation parameter mu (erf(mu*r12)/r12)        ....  0.300000
   NL short-range parameter             ....  6.000000
   NL long-range parameter              ....  0.010000


General Settings:
 Integral files         IntName         .... MOR37_pr38
 Hartree-Fock type      HFTyp           .... RHF
 Total Charge           Charge          ....    0
 Multiplicity           Mult            ....    1
 Number of Electrons    NEL             ....  182
 Basis Dimension        Dim             .... 1223
 Nuclear Repulsion      ENuc            ....   2310.7496732048 Eh

Convergence Acceleration:
 DIIS                   CNVDIIS         .... on
   Start iteration      DIISMaxIt       ....    12
   Startup error        DIISStart       ....  0.200000
   # of expansion vecs  DIISMaxEq       ....     5
   Bias factor          DIISBfac        ....   1.050
   Max. coefficient     DIISMaxC        ....  10.000
 Newton-Raphson         CNVNR           .... off
 SOSCF                  CNVSOSCF        .... off
 Level Shifting         CNVShift        .... on
   Level shift para.    LevelShift      ....    0.2500
   Turn off err/grad.   ShiftErr        ....    0.0010
 Zerner damping         CNVZerner       .... off
 Static damping         CNVDamp         .... on
   Fraction old density DampFac         ....    0.7000
   Max. Damping (<1)    DampMax         ....    0.9800
   Min. Damping (>=0)   DampMin         ....    0.0000
   Turn off err/grad.   DampErr         ....    0.1000
 Fernandez-Rico         CNVRico         .... off

SCF Procedure:
 Maximum # iterations   MaxIter         ....   125
 SCF integral mode      SCFMode         .... Direct
   Integral package                     .... LIBINT
 Reset frequency        DirectResetFreq ....    20
 Integral Threshold     Thresh          ....  1.000e-10 Eh
 Primitive CutOff       TCut            ....  1.000e-11 Eh

Convergence Tolerance:
 Convergence Check Mode ConvCheckMode   .... Total+1el-Energy
 Convergence forced     ConvForced      .... 0
 Energy Change          TolE            ....  1.000e-06 Eh
 1-El. energy change                    ....  1.000e-03 Eh
 DIIS Error             TolErr          ....  1.000e-06


Diagonalization of the overlap matrix:
Smallest eigenvalue                        ... 8.075e-07
Time for diagonalization                   ...    0.230 sec
Threshold for overlap eigenvalues          ... 1.000e-08
Number of eigenvalues below threshold      ... 0
Time for construction of square roots      ...    0.182 sec
Total time needed                          ...    0.416 sec

-------------------
DFT GRID GENERATION
-------------------

General Integration Accuracy     IntAcc      ...  4.670
Radial Grid Type                 RadialGrid  ... Gauss-Chebyshev
Angular Grid (max. acc.)         AngularGrid ... Lebedev-302
Angular grid pruning method      GridPruning ... 3 (G Style)
Weight generation scheme         WeightScheme... Becke
Basis function cutoff            BFCut       ...    1.0000e-10
Integration weight cutoff        WCut        ...    1.0000e-14
Grids for H and He will be reduced by one unit

# of grid points (after initial pruning)     ... 215954 (   0.0 sec)
# of grid points (after weights+screening)   ... 185782 (   0.1 sec)
nearest neighbour list constructed           ...    0.0 sec
Grid point re-assignment to atoms done       ...    0.0 sec
Grid point division into batches done        ...    0.6 sec
Reduced shell lists constructed in    0.8 sec

Total number of grid points                  ...   185782
Total number of batches                      ...     2926
Average number of points per batch           ...       63
Average number of grid points per atom       ...     4039
Average number of shells per batch           ...   262.85 (58.28%)
Average number of basis functions per batch  ...   701.35 (57.35%)
Average number of large shells per batch     ...   193.85 (73.75%)
Average number of large basis fcns per batch ...   524.57 (74.79%)
Maximum spatial batch extension              ...   4.21,  3.61,  5.15 au
Average spatial batch extension              ...   0.05,  0.05,  0.05 au

Time for grid setup =    1.044 sec

------------------------------
INITIAL GUESS: MODEL POTENTIAL
------------------------------
Loading Hartree-Fock densities                     ... done
  calling /sw/apps/orca/orca_4_2_0_linux_x86-64_openmpi314/orca MOR37_pr38_atom42.inp > MOR37_pr38_atom42.out in order to generate an atomic fitting density for atom 0 (Mo with ECP) on-the-fly... 
    atom 0 (Mo), assumed electronic state with S=5: 1s2 2s2 2p6 3s2 3p6 4s2 3d10 4p6 5s2 4d4           ... done
Calculating cut-offs                               ... done
Setting up the integral package                    ... done
Initializing the effective Hamiltonian             ... done
Starting the Coulomb interaction                   ... done (   0.3 sec)
Reading the grid                                   ... done
Mapping shells                                     ... done
Starting the XC term evaluation                    ... done (   0.9 sec)
  promolecular density results
     # of electrons  =    209.987902953
     EX              =   -280.614938702
     EC              =     -7.931946959
     EX+EC           =   -288.546885661
Transforming the Hamiltonian                       ... done (   0.1 sec)
Diagonalizing the Hamiltonian                      ... done (   0.2 sec)
Back transforming the eigenvectors                 ... done (   0.1 sec)
Now organizing SCF variables                       ... done
                      ------------------
                      INITIAL GUESS DONE (   4.4 sec)
                      ------------------
--------------
SCF ITERATIONS
--------------
ITER       Energy         Delta-E        Max-DP      RMS-DP      [F,P]     Damp
               ***  Starting incremental Fock matrix formation  ***
  0  -1791.3439566395   0.000000000000 1.01394503  0.00201969  0.4469472 0.7000
  1  -1791.7245575280  -0.380600888522 0.53883208  0.00140640  0.2906421 0.7000
                               ***Turning on DIIS***
  2  -1791.8938149259  -0.169257397914 0.19307421  0.00087004  0.1896825 0.7000
  3  -1791.9934084590  -0.099593533113 0.42215914  0.00075249  0.1299084 0.7000
  4  -1792.0623752181  -0.068966759025 0.72690617  0.00165949  0.0942844 0.0000
  5  -1792.2204868776  -0.158111659547 0.07558534  0.00015182  0.0063486 0.0000
  6  -1792.2207962902  -0.000309412581 0.32719776  0.00033644  0.0046311 0.0000
  7  -1792.2209149250  -0.000118634825 0.54672461  0.00054141  0.0015296 0.0000
  8  -1792.2209539850  -0.000039060005 0.18208784  0.00018987  0.0005450 0.0000
  9  -1792.2209662530  -0.000012267953 0.54985251  0.00054704  0.0003630 0.0000
 10  -1792.2209671550  -0.000000901966 0.36400876  0.00035814  0.0002307 0.0000
 11  -1792.2209671750  -0.000000020048 0.42326573  0.00041928  0.0001398 0.0000
 12  -1792.2209672250  -0.000000049979 0.48790711  0.00048292  0.0000448 0.0000
                 **** Energy Check signals convergence ****

               *****************************************************
               *                     SUCCESS                       *
               *           SCF CONVERGED AFTER  13 CYCLES          *
               *****************************************************


Setting up the DFT-NL grid :

General Integration Accuracy     IntAcc      ...  4.340
Radial Grid Type                 RadialGrid  ... Gauss-Chebyshev
Angular Grid (max. acc.)         AngularGrid ... Lebedev-110
Angular grid pruning method      GridPruning ... 3 (G Style)
Weight generation scheme         WeightScheme... Becke
Basis function cutoff            BFCut       ...    1.0000e-10
Integration weight cutoff        WCut        ...    1.0000e-14
Grids for H and He will be reduced by one unit

# of grid points (after initial pruning)     ...  55156 (   0.0 sec)
# of grid points (after weights+screening)   ...  48530 (   0.0 sec)
nearest neighbour list constructed           ...    0.0 sec
Grid point re-assignment to atoms done       ...    0.0 sec
Grid point division into batches done        ...    0.0 sec
Reduced shell lists constructed in    0.1 sec

Total number of grid points                  ...    48530
Total number of batches                      ...      784
Average number of points per batch           ...       61
Average number of grid points per atom       ...     1055
Average number of shells per batch           ...   272.56 (60.43%)
Average number of basis functions per batch  ...   731.38 (59.80%)
Average number of large shells per batch     ...   201.71 (74.00%)
Average number of large basis fcns per batch ...   545.53 (74.59%)
Maximum spatial batch extension              ...   4.26,  3.44,  4.08 au
Average spatial batch extension              ...   0.07,  0.07,  0.07 au

Final grid set up in    0.2 sec

-------------------------------------------------------------------------------
                         DFT-NL dispersion correction                          
-------------------------------------------------------------------------------

SC Energy -1792.220967300 
NL    Energy 0.670991465 
SC+NL Energy -1791.549975835 
NL done in    1.0 sec
-------------------------------------------------------------------------------

----------------
TOTAL SCF ENERGY
----------------

Total Energy       :        -1791.54997583 Eh          -48750.55327 eV

Components:
Nuclear Repulsion  :         2310.74967320 Eh           62878.69530 eV
Electronic Energy  :        -4102.29964904 Eh         -111629.24857 eV
One Electron Energy:        -7085.05839086 Eh         -192794.24029 eV
Two Electron Energy:         2982.75874182 Eh           81164.99171 eV

Virial components:
Potential Energy   :        -3533.67894485 Eh          -96156.29258 eV
Kinetic Energy     :         1742.12896901 Eh           47405.73931 eV
Virial Ratio       :            2.02836817


DFT components:
N(Alpha)           :       91.000211283682 electrons
N(Beta)            :       91.000211283682 electrons
N(Total)           :      182.000422567365 electrons
E(X)               :     -122.814423056088 Eh       
E(C)               :       -6.174525502724 Eh       
NL Energy, E(C,NL) :        0.670991465392 Eh       
E(XC)              :     -128.317957093420 Eh       
DFET-embed. en.    :        0.000000000000 Eh       

---------------
SCF CONVERGENCE
---------------

  Last Energy change         ...   -7.5220e-08  Tolerance :   1.0000e-06
  Last MAX-Density change    ...    1.4326e-01  Tolerance :   1.0000e-05
  Last RMS-Density change    ...    1.4434e-04  Tolerance :   1.0000e-06
  Last DIIS Error            ...    1.3035e-05  Tolerance :   1.0000e-06

             **** THE GBW FILE WAS UPDATED (MOR37_pr38.gbw) ****
             **** DENSITY FILE WAS UPDATED (MOR37_pr38.scfp) ****
             **** ENERGY FILE WAS UPDATED (MOR37_pr38.en.tmp) ****
             **** THE GBW FILE WAS UPDATED (MOR37_pr38.gbw) ****
             **** DENSITY FILE WAS UPDATED (MOR37_pr38.scfp) ****
----------------
ORBITAL ENERGIES
----------------

  NO   OCC          E(Eh)            E(eV) 
   0   2.0000     -77.393721     -2105.9902 
   1   2.0000     -77.393717     -2105.9901 
   2   2.0000     -77.393701     -2105.9897 
   3   2.0000     -19.362626      -526.8839 
   4   2.0000     -19.362621      -526.8837 
   5   2.0000     -19.362612      -526.8835 
   6   2.0000     -10.423440      -283.6362 
   7   2.0000     -10.423434      -283.6361 
   8   2.0000     -10.423423      -283.6358 
   9   2.0000     -10.354058      -281.7482 
  10   2.0000     -10.354045      -281.7479 
  11   2.0000     -10.354032      -281.7475 
  12   2.0000     -10.348362      -281.5933 
  13   2.0000     -10.348327      -281.5923 
  14   2.0000     -10.348308      -281.5918 
  15   2.0000     -10.345199      -281.5072 
  16   2.0000     -10.345186      -281.5068 
  17   2.0000     -10.345160      -281.5061 
  18   2.0000      -6.739527      -183.3919 
  19   2.0000      -6.739524      -183.3918 
  20   2.0000      -6.739513      -183.3915 
  21   2.0000      -4.852377      -132.0399 
  22   2.0000      -4.852373      -132.0398 
  23   2.0000      -4.852358      -132.0394 
  24   2.0000      -4.852154      -132.0338 
  25   2.0000      -4.852152      -132.0338 
  26   2.0000      -4.852137      -132.0334 
  27   2.0000      -4.848608      -131.9373 
  28   2.0000      -4.848600      -131.9371 
  29   2.0000      -4.848599      -131.9371 
  30   2.0000      -2.627258       -71.4913 
  31   2.0000      -1.625720       -44.2381 
  32   2.0000      -1.625713       -44.2379 
  33   2.0000      -1.625175       -44.2232 
  34   2.0000      -1.209146       -32.9025 
  35   2.0000      -1.208526       -32.8857 
  36   2.0000      -1.208518       -32.8854 
  37   2.0000      -0.905389       -24.6369 
  38   2.0000      -0.899293       -24.4710 
  39   2.0000      -0.899285       -24.4708 
  40   2.0000      -0.828012       -22.5313 
  41   2.0000      -0.824558       -22.4374 
  42   2.0000      -0.824499       -22.4358 
  43   2.0000      -0.820007       -22.3135 
  44   2.0000      -0.819980       -22.3128 
  45   2.0000      -0.818631       -22.2761 
  46   2.0000      -0.677875       -18.4459 
  47   2.0000      -0.659820       -17.9546 
  48   2.0000      -0.659806       -17.9542 
  49   2.0000      -0.646456       -17.5910 
  50   2.0000      -0.638114       -17.3640 
  51   2.0000      -0.638104       -17.3637 
  52   2.0000      -0.577818       -15.7232 
  53   2.0000      -0.565602       -15.3908 
  54   2.0000      -0.565529       -15.3888 
  55   2.0000      -0.553290       -15.0558 
  56   2.0000      -0.553229       -15.0541 
  57   2.0000      -0.550811       -14.9883 
  58   2.0000      -0.546138       -14.8612 
  59   2.0000      -0.541897       -14.7458 
  60   2.0000      -0.541896       -14.7457 
  61   2.0000      -0.533624       -14.5206 
  62   2.0000      -0.529780       -14.4160 
  63   2.0000      -0.529707       -14.4141 
  64   2.0000      -0.524124       -14.2621 
  65   2.0000      -0.521707       -14.1964 
  66   2.0000      -0.521664       -14.1952 
  67   2.0000      -0.516690       -14.0599 
  68   2.0000      -0.509839       -13.8734 
  69   2.0000      -0.509772       -13.8716 
  70   2.0000      -0.507791       -13.8177 
  71   2.0000      -0.505048       -13.7431 
  72   2.0000      -0.505018       -13.7422 
  73   2.0000      -0.502810       -13.6822 
  74   2.0000      -0.498289       -13.5591 
  75   2.0000      -0.496369       -13.5069 
  76   2.0000      -0.496288       -13.5047 
  77   2.0000      -0.492833       -13.4107 
  78   2.0000      -0.492815       -13.4102 
  79   2.0000      -0.444210       -12.0876 
  80   2.0000      -0.442219       -12.0334 
  81   2.0000      -0.442190       -12.0326 
  82   2.0000      -0.434135       -11.8134 
  83   2.0000      -0.434119       -11.8130 
  84   2.0000      -0.432572       -11.7709 
  85   2.0000      -0.374337       -10.1862 
  86   2.0000      -0.359461        -9.7814 
  87   2.0000      -0.359415        -9.7802 
  88   2.0000      -0.266644        -7.2558 
  89   2.0000      -0.266639        -7.2556 
  90   2.0000      -0.265115        -7.2141 
  91   0.0000       0.017515         0.4766 
  92   0.0000       0.034480         0.9383 
  93   0.0000       0.034520         0.9393 
  94   0.0000       0.041228         1.1219 
  95   0.0000       0.051292         1.3957 
  96   0.0000       0.051301         1.3960 
  97   0.0000       0.059548         1.6204 
  98   0.0000       0.059576         1.6211 
  99   0.0000       0.061611         1.6765 
 100   0.0000       0.069305         1.8859 
 101   0.0000       0.069314         1.8861 
 102   0.0000       0.072262         1.9664 
 103   0.0000       0.072838         1.9820 
 104   0.0000       0.080316         2.1855 
 105   0.0000       0.080341         2.1862 
 106   0.0000       0.085381         2.3233 
 107   0.0000       0.089793         2.4434 
 108   0.0000       0.089873         2.4456 
 109   0.0000       0.098155         2.6709 
 110   0.0000       0.102404         2.7865 
 111   0.0000       0.102531         2.7900 
 112   0.0000       0.106473         2.8973 
 113   0.0000       0.112864         3.0712 
 114   0.0000       0.117310         3.1922 
 115   0.0000       0.117365         3.1937 
 116   0.0000       0.119372         3.2483 
 117   0.0000       0.123529         3.3614 
 118   0.0000       0.123765         3.3678 
 119   0.0000       0.132211         3.5976 
 120   0.0000       0.134676         3.6647 
 121   0.0000       0.134779         3.6675 
 122   0.0000       0.138034         3.7561 
 123   0.0000       0.143923         3.9164 
 124   0.0000       0.144059         3.9200 
 125   0.0000       0.148011         4.0276 
 126   0.0000       0.151426         4.1205 
 127   0.0000       0.151457         4.1214 
 128   0.0000       0.155600         4.2341 
 129   0.0000       0.162213         4.4140 
 130   0.0000       0.164666         4.4808 
 131   0.0000       0.164732         4.4826 
 132   0.0000       0.165261         4.4970 
 133   0.0000       0.165317         4.4985 
 134   0.0000       0.170667         4.6441 
 135   0.0000       0.173121         4.7109 
 136   0.0000       0.173244         4.7142 
 137   0.0000       0.175887         4.7861 
 138   0.0000       0.176547         4.8041 
 139   0.0000       0.176610         4.8058 
 140   0.0000       0.185268         5.0414 
 141   0.0000       0.188732         5.1357 
 142   0.0000       0.188815         5.1379 
 143   0.0000       0.192899         5.2491 
 144   0.0000       0.194215         5.2849 
 145   0.0000       0.194316         5.2876 
 146   0.0000       0.198479         5.4009 
 147   0.0000       0.198535         5.4024 
 148   0.0000       0.204840         5.5740 
 149   0.0000       0.205955         5.6043 
 150   0.0000       0.206187         5.6106 
 151   0.0000       0.212972         5.7952 
 152   0.0000       0.214316         5.8318 
 153   0.0000       0.214347         5.8327 
 154   0.0000       0.218818         5.9543 
 155   0.0000       0.224650         6.1130 
 156   0.0000       0.224679         6.1138 
 157   0.0000       0.226146         6.1537 
 158   0.0000       0.238560         6.4916 
 159   0.0000       0.238646         6.4939 
 160   0.0000       0.244542         6.6543 
 161   0.0000       0.249064         6.7774 
 162   0.0000       0.249251         6.7825 
 163   0.0000       0.251849         6.8532 
 164   0.0000       0.253489         6.8978 
 165   0.0000       0.255408         6.9500 
 166   0.0000       0.255956         6.9649 
 167   0.0000       0.260191         7.0801 
 168   0.0000       0.260309         7.0834 
 169   0.0000       0.262498         7.1429 
 170   0.0000       0.273076         7.4308 
 171   0.0000       0.274115         7.4590 
 172   0.0000       0.274135         7.4596 
 173   0.0000       0.277663         7.5556 
 174   0.0000       0.280430         7.6309 
 175   0.0000       0.280746         7.6395 
 176   0.0000       0.283099         7.7035 
 177   0.0000       0.292379         7.9560 
 178   0.0000       0.292466         7.9584 
 179   0.0000       0.298222         8.1150 
 180   0.0000       0.298281         8.1166 
 181   0.0000       0.300533         8.1779 
 182   0.0000       0.304443         8.2843 
 183   0.0000       0.304613         8.2889 
 184   0.0000       0.305370         8.3095 
 185   0.0000       0.308051         8.3825 
 186   0.0000       0.310974         8.4620 
 187   0.0000       0.311040         8.4638 
 188   0.0000       0.315599         8.5879 
 189   0.0000       0.317616         8.6428 
 190   0.0000       0.317714         8.6455 
 191   0.0000       0.319327         8.6893 
 192   0.0000       0.322264         8.7692 
 193   0.0000       0.322546         8.7769 
 194   0.0000       0.327656         8.9160 
 195   0.0000       0.329361         8.9624 
 196   0.0000       0.329568         8.9680 
 197   0.0000       0.336629         9.1602 
 198   0.0000       0.336791         9.1645 
 199   0.0000       0.339924         9.2498 
 200   0.0000       0.345241         9.3945 
 201   0.0000       0.345768         9.4088 
 202   0.0000       0.345887         9.4121 
 203   0.0000       0.350967         9.5503 
 204   0.0000       0.351135         9.5549 
 205   0.0000       0.351497         9.5647 
 206   0.0000       0.356586         9.7032 
 207   0.0000       0.358907         9.7664 
 208   0.0000       0.359191         9.7741 
 209   0.0000       0.367073         9.9886 
 210   0.0000       0.367215         9.9924 
 211   0.0000       0.370714        10.0876 
 212   0.0000       0.372900        10.1471 
 213   0.0000       0.373409        10.1610 
 214   0.0000       0.373726        10.1696 
 215   0.0000       0.380064        10.3421 
 216   0.0000       0.382395        10.4055 
 217   0.0000       0.382460        10.4073 
 218   0.0000       0.387250        10.5376 
 219   0.0000       0.387383        10.5412 
 220   0.0000       0.387940        10.5564 
 221   0.0000       0.397205        10.8085 
 222   0.0000       0.400089        10.8870 
 223   0.0000       0.400125        10.8880 
 224   0.0000       0.411185        11.1889 
 225   0.0000       0.411253        11.1908 
 226   0.0000       0.412186        11.2161 
 227   0.0000       0.415798        11.3144 
 228   0.0000       0.416180        11.3248 
 229   0.0000       0.420754        11.4493 
 230   0.0000       0.424170        11.5423 
 231   0.0000       0.425364        11.5748 
 232   0.0000       0.425898        11.5893 
 233   0.0000       0.439370        11.9559 
 234   0.0000       0.439519        11.9599 
 235   0.0000       0.439744        11.9660 
 236   0.0000       0.442852        12.0506 
 237   0.0000       0.445978        12.1357 
 238   0.0000       0.450843        12.2681 
 239   0.0000       0.450953        12.2710 
 240   0.0000       0.451419        12.2837 
 241   0.0000       0.456883        12.4324 
 242   0.0000       0.456981        12.4351 
 243   0.0000       0.459547        12.5049 
 244   0.0000       0.459702        12.5091 
 245   0.0000       0.465100        12.6560 
 246   0.0000       0.465944        12.6790 
 247   0.0000       0.466006        12.6807 
 248   0.0000       0.470676        12.8078 
 249   0.0000       0.474810        12.9202 
 250   0.0000       0.475206        12.9310 
 251   0.0000       0.475527        12.9398 
 252   0.0000       0.479690        13.0530 
 253   0.0000       0.481117        13.0919 
 254   0.0000       0.484501        13.1839 
 255   0.0000       0.484670        13.1885 
 256   0.0000       0.490149        13.3376 
 257   0.0000       0.490341        13.3429 
 258   0.0000       0.490807        13.3555 
 259   0.0000       0.502286        13.6679 
 260   0.0000       0.502372        13.6703 
 261   0.0000       0.507908        13.8209 
 262   0.0000       0.512384        13.9427 
 263   0.0000       0.512532        13.9467 
 264   0.0000       0.519289        14.1306 
 265   0.0000       0.519564        14.1381 
 266   0.0000       0.523870        14.2552 
 267   0.0000       0.524254        14.2657 
 268   0.0000       0.525489        14.2993 
 269   0.0000       0.529665        14.4129 
 270   0.0000       0.529954        14.4208 
 271   0.0000       0.533532        14.5181 
 272   0.0000       0.539092        14.6694 
 273   0.0000       0.539204        14.6725 
 274   0.0000       0.539532        14.6814 
 275   0.0000       0.546929        14.8827 
 276   0.0000       0.547259        14.8917 
 277   0.0000       0.556187        15.1346 
 278   0.0000       0.558913        15.2088 
 279   0.0000       0.559040        15.2123 
 280   0.0000       0.562972        15.3193 
 281   0.0000       0.566587        15.4176 
 282   0.0000       0.566772        15.4227 
 283   0.0000       0.572586        15.5809 
 284   0.0000       0.572996        15.5920 
 285   0.0000       0.573486        15.6053 
 286   0.0000       0.579704        15.7745 
 287   0.0000       0.581658        15.8277 
 288   0.0000       0.581892        15.8341 
 289   0.0000       0.583415        15.8755 
 290   0.0000       0.587489        15.9864 
 291   0.0000       0.588540        16.0150 
 292   0.0000       0.588592        16.0164 
 293   0.0000       0.595557        16.2059 
 294   0.0000       0.595973        16.2172 
 295   0.0000       0.598134        16.2761 
 296   0.0000       0.607080        16.5195 
 297   0.0000       0.609780        16.5929 
 298   0.0000       0.612263        16.6605 
 299   0.0000       0.612531        16.6678 
 300   0.0000       0.616305        16.7705 
 301   0.0000       0.620780        16.8923 
 302   0.0000       0.621002        16.8983 
 303   0.0000       0.623476        16.9656 
 304   0.0000       0.631100        17.1731 
 305   0.0000       0.631279        17.1780 
 306   0.0000       0.637922        17.3587 
 307   0.0000       0.641183        17.4475 
 308   0.0000       0.641439        17.4544 
 309   0.0000       0.647900        17.6303 
 310   0.0000       0.649355        17.6698 
 311   0.0000       0.649683        17.6788 
 312   0.0000       0.653362        17.7789 
 313   0.0000       0.658512        17.9190 
 314   0.0000       0.658647        17.9227 
 315   0.0000       0.662925        18.0391 
 316   0.0000       0.663279        18.0487 
 317   0.0000       0.663687        18.0598 
 318   0.0000       0.672819        18.3083 
 319   0.0000       0.676134        18.3985 
 320   0.0000       0.676274        18.4024 
 321   0.0000       0.677013        18.4225 
 322   0.0000       0.679011        18.4768 
 323   0.0000       0.679227        18.4827 
 324   0.0000       0.684120        18.6158 
 325   0.0000       0.684282        18.6202 
 326   0.0000       0.685110        18.6428 
 327   0.0000       0.686522        18.6812 
 328   0.0000       0.692541        18.8450 
 329   0.0000       0.692765        18.8511 
 330   0.0000       0.697846        18.9894 
 331   0.0000       0.698123        18.9969 
 332   0.0000       0.704284        19.1646 
 333   0.0000       0.707763        19.2592 
 334   0.0000       0.709849        19.3160 
 335   0.0000       0.710130        19.3236 
 336   0.0000       0.716695        19.5023 
 337   0.0000       0.721570        19.6349 
 338   0.0000       0.721922        19.6445 
 339   0.0000       0.723522        19.6880 
 340   0.0000       0.723694        19.6927 
 341   0.0000       0.725206        19.7339 
 342   0.0000       0.729825        19.8596 
 343   0.0000       0.730069        19.8662 
 344   0.0000       0.737336        20.0639 
 345   0.0000       0.737493        20.0682 
 346   0.0000       0.740856        20.1597 
 347   0.0000       0.741142        20.1675 
 348   0.0000       0.741703        20.1828 
 349   0.0000       0.743225        20.2242 
 350   0.0000       0.748377        20.3644 
 351   0.0000       0.754596        20.5336 
 352   0.0000       0.754817        20.5396 
 353   0.0000       0.758229        20.6325 
 354   0.0000       0.763792        20.7838 
 355   0.0000       0.763918        20.7873 
 356   0.0000       0.765356        20.8264 
 357   0.0000       0.768158        20.9026 
 358   0.0000       0.768442        20.9104 
 359   0.0000       0.768670        20.9166 
 360   0.0000       0.775019        21.0893 
 361   0.0000       0.775247        21.0955 
 362   0.0000       0.775765        21.1096 
 363   0.0000       0.780391        21.2355 
 364   0.0000       0.782020        21.2798 
 365   0.0000       0.782343        21.2886 
 366   0.0000       0.785476        21.3739 
 367   0.0000       0.787416        21.4267 
 368   0.0000       0.787626        21.4324 
 369   0.0000       0.799195        21.7472 
 370   0.0000       0.799386        21.7524 
 371   0.0000       0.799631        21.7591 
 372   0.0000       0.802397        21.8343 
 373   0.0000       0.802629        21.8406 
 374   0.0000       0.810431        22.0530 
 375   0.0000       0.816935        22.2299 
 376   0.0000       0.817079        22.2339 
 377   0.0000       0.819909        22.3109 
 378   0.0000       0.820202        22.3188 
 379   0.0000       0.820629        22.3305 
 380   0.0000       0.825197        22.4548 
 381   0.0000       0.832078        22.6420 
 382   0.0000       0.832141        22.6437 
 383   0.0000       0.834977        22.7209 
 384   0.0000       0.839539        22.8450 
 385   0.0000       0.840000        22.8576 
 386   0.0000       0.846617        23.0376 
 387   0.0000       0.847501        23.0617 
 388   0.0000       0.847766        23.0689 
 389   0.0000       0.853768        23.2322 
 390   0.0000       0.856431        23.3047 
 391   0.0000       0.856862        23.3164 
 392   0.0000       0.864590        23.5267 
 393   0.0000       0.864991        23.5376 
 394   0.0000       0.865591        23.5539 
 395   0.0000       0.871096        23.7037 
 396   0.0000       0.871140        23.7049 
 397   0.0000       0.872206        23.7339 
 398   0.0000       0.873717        23.7750 
 399   0.0000       0.882049        24.0018 
 400   0.0000       0.882151        24.0046 
 401   0.0000       0.886021        24.1098 
 402   0.0000       0.889487        24.2042 
 403   0.0000       0.889821        24.2133 
 404   0.0000       0.893030        24.3006 
 405   0.0000       0.899010        24.4633 
 406   0.0000       0.899058        24.4646 
 407   0.0000       0.907647        24.6983 
 408   0.0000       0.915096        24.9010 
 409   0.0000       0.915868        24.9220 
 410   0.0000       0.922293        25.0969 
 411   0.0000       0.927315        25.2335 
 412   0.0000       0.927520        25.2391 
 413   0.0000       0.935541        25.4574 
 414   0.0000       0.942657        25.6510 
 415   0.0000       0.942984        25.6599 
 416   0.0000       0.951138        25.8818 
 417   0.0000       0.955666        26.0050 
 418   0.0000       0.957078        26.0434 
 419   0.0000       0.957649        26.0589 
 420   0.0000       0.961615        26.1669 
 421   0.0000       0.961996        26.1773 
 422   0.0000       0.969072        26.3698 
 423   0.0000       0.970007        26.3952 
 424   0.0000       0.973769        26.4976 
 425   0.0000       0.978124        26.6161 
 426   0.0000       0.983241        26.7553 
 427   0.0000       0.988635        26.9021 
 428   0.0000       0.988845        26.9078 
 429   0.0000       0.993705        27.0401 
 430   0.0000       0.999498        27.1977 
 431   0.0000       0.999799        27.2059 
 432   0.0000       1.012041        27.5390 
 433   0.0000       1.012223        27.5440 
 434   0.0000       1.016746        27.6671 
 435   0.0000       1.020905        27.7802 
 436   0.0000       1.021535        27.7974 
 437   0.0000       1.030147        28.0317 
 438   0.0000       1.030276        28.0352 
 439   0.0000       1.033488        28.1226 
 440   0.0000       1.035884        28.1878 
 441   0.0000       1.042537        28.3689 
 442   0.0000       1.042948        28.3801 
 443   0.0000       1.043282        28.3891 
 444   0.0000       1.053826        28.6761 
 445   0.0000       1.054092        28.6833 
 446   0.0000       1.065649        28.9978 
 447   0.0000       1.076556        29.2946 
 448   0.0000       1.076907        29.3041 
 449   0.0000       1.080235        29.3947 
 450   0.0000       1.082186        29.4478 
 451   0.0000       1.082469        29.4555 
 452   0.0000       1.093104        29.7449 
 453   0.0000       1.100743        29.9528 
 454   0.0000       1.100979        29.9592 
 455   0.0000       1.106535        30.1104 
 456   0.0000       1.118189        30.4275 
 457   0.0000       1.118502        30.4360 
 458   0.0000       1.121720        30.5236 
 459   0.0000       1.127988        30.6941 
 460   0.0000       1.129546        30.7365 
 461   0.0000       1.129852        30.7448 
 462   0.0000       1.140762        31.0417 
 463   0.0000       1.140949        31.0468 
 464   0.0000       1.143713        31.1220 
 465   0.0000       1.150068        31.2949 
 466   0.0000       1.160527        31.5796 
 467   0.0000       1.160752        31.5857 
 468   0.0000       1.173668        31.9371 
 469   0.0000       1.173906        31.9436 
 470   0.0000       1.179732        32.1021 
 471   0.0000       1.180278        32.1170 
 472   0.0000       1.180408        32.1205 
 473   0.0000       1.190811        32.4036 
 474   0.0000       1.192310        32.4444 
 475   0.0000       1.192755        32.4565 
 476   0.0000       1.214048        33.0359 
 477   0.0000       1.214345        33.0440 
 478   0.0000       1.216187        33.0941 
 479   0.0000       1.222856        33.2756 
 480   0.0000       1.223111        33.2825 
 481   0.0000       1.226018        33.3616 
 482   0.0000       1.240940        33.7677 
 483   0.0000       1.243513        33.8377 
 484   0.0000       1.243652        33.8415 
 485   0.0000       1.246145        33.9093 
 486   0.0000       1.256773        34.1985 
 487   0.0000       1.256995        34.2046 
 488   0.0000       1.260889        34.3105 
 489   0.0000       1.267008        34.4770 
 490   0.0000       1.267278        34.4844 
 491   0.0000       1.270089        34.5609 
 492   0.0000       1.277367        34.7589 
 493   0.0000       1.277572        34.7645 
 494   0.0000       1.292347        35.1665 
 495   0.0000       1.301888        35.4262 
 496   0.0000       1.309115        35.6228 
 497   0.0000       1.309308        35.6281 
 498   0.0000       1.320505        35.9328 
 499   0.0000       1.320889        35.9432 
 500   0.0000       1.324539        36.0425 
 501   0.0000       1.324815        36.0501 
 502   0.0000       1.326334        36.0914 
 503   0.0000       1.337841        36.4045 
 504   0.0000       1.338226        36.4150 
 505   0.0000       1.344444        36.5842 
 506   0.0000       1.350421        36.7468 
 507   0.0000       1.351524        36.7768 
 508   0.0000       1.351622        36.7795 
 509   0.0000       1.368282        37.2329 
 510   0.0000       1.368811        37.2472 
 511   0.0000       1.373231        37.3675 
 512   0.0000       1.383073        37.6353 
 513   0.0000       1.383473        37.6462 
 514   0.0000       1.383656        37.6512 
 515   0.0000       1.391688        37.8697 
 516   0.0000       1.391744        37.8713 
 517   0.0000       1.400333        38.1050 
 518   0.0000       1.403281        38.1852 
 519   0.0000       1.403383        38.1880 
 520   0.0000       1.406055        38.2607 
 521   0.0000       1.417957        38.5846 
 522   0.0000       1.418196        38.5911 
 523   0.0000       1.418890        38.6100 
 524   0.0000       1.426026        38.8041 
 525   0.0000       1.429720        38.9047 
 526   0.0000       1.429798        38.9068 
 527   0.0000       1.435452        39.0606 
 528   0.0000       1.435537        39.0630 
 529   0.0000       1.441270        39.2189 
 530   0.0000       1.451535        39.4983 
 531   0.0000       1.451607        39.5002 
 532   0.0000       1.457494        39.6604 
 533   0.0000       1.464228        39.8437 
 534   0.0000       1.464698        39.8565 
 535   0.0000       1.476283        40.1717 
 536   0.0000       1.483996        40.3816 
 537   0.0000       1.484067        40.3835 
 538   0.0000       1.489787        40.5392 
 539   0.0000       1.490625        40.5620 
 540   0.0000       1.495807        40.7030 
 541   0.0000       1.496089        40.7106 
 542   0.0000       1.503535        40.9133 
 543   0.0000       1.503730        40.9186 
 544   0.0000       1.506640        40.9978 
 545   0.0000       1.510381        41.0995 
 546   0.0000       1.520975        41.3878 
 547   0.0000       1.521293        41.3965 
 548   0.0000       1.528037        41.5800 
 549   0.0000       1.534750        41.7627 
 550   0.0000       1.534975        41.7688 
 551   0.0000       1.543709        42.0065 
 552   0.0000       1.547878        42.1199 
 553   0.0000       1.548317        42.1318 
 554   0.0000       1.557138        42.3719 
 555   0.0000       1.557985        42.3949 
 556   0.0000       1.558425        42.4069 
 557   0.0000       1.563111        42.5344 
 558   0.0000       1.565868        42.6094 
 559   0.0000       1.566216        42.6189 
 560   0.0000       1.566345        42.6224 
 561   0.0000       1.586507        43.1711 
 562   0.0000       1.586713        43.1767 
 563   0.0000       1.587345        43.1939 
 564   0.0000       1.598270        43.4911 
 565   0.0000       1.598942        43.5094 
 566   0.0000       1.611493        43.8509 
 567   0.0000       1.611658        43.8554 
 568   0.0000       1.626249        44.2525 
 569   0.0000       1.626481        44.2588 
 570   0.0000       1.631771        44.4027 
 571   0.0000       1.634741        44.4836 
 572   0.0000       1.640085        44.6290 
 573   0.0000       1.650530        44.9132 
 574   0.0000       1.655689        45.0536 
 575   0.0000       1.655883        45.0589 
 576   0.0000       1.660247        45.1776 
 577   0.0000       1.664817        45.3020 
 578   0.0000       1.664956        45.3058 
 579   0.0000       1.679442        45.7000 
 580   0.0000       1.685870        45.8749 
 581   0.0000       1.686047        45.8797 
 582   0.0000       1.692014        46.0420 
 583   0.0000       1.692317        46.0503 
 584   0.0000       1.709681        46.5228 
 585   0.0000       1.714716        46.6598 
 586   0.0000       1.715275        46.6750 
 587   0.0000       1.723582        46.9011 
 588   0.0000       1.731457        47.1153 
 589   0.0000       1.731671        47.1212 
 590   0.0000       1.740808        47.3698 
 591   0.0000       1.747893        47.5626 
 592   0.0000       1.747983        47.5650 
 593   0.0000       1.754436        47.7406 
 594   0.0000       1.765915        48.0530 
 595   0.0000       1.771981        48.2181 
 596   0.0000       1.772458        48.2310 
 597   0.0000       1.775959        48.3263 
 598   0.0000       1.786435        48.6114 
 599   0.0000       1.786635        48.6168 
 600   0.0000       1.787962        48.6529 
 601   0.0000       1.791722        48.7552 
 602   0.0000       1.792149        48.7668 
 603   0.0000       1.799245        48.9600 
 604   0.0000       1.807380        49.1813 
 605   0.0000       1.807644        49.1885 
 606   0.0000       1.816692        49.4347 
 607   0.0000       1.819373        49.5077 
 608   0.0000       1.819689        49.5163 
 609   0.0000       1.831489        49.8373 
 610   0.0000       1.831827        49.8466 
 611   0.0000       1.855172        50.4818 
 612   0.0000       1.858549        50.5737 
 613   0.0000       1.858828        50.5813 
 614   0.0000       1.862716        50.6871 
 615   0.0000       1.862806        50.6895 
 616   0.0000       1.864568        50.7375 
 617   0.0000       1.887183        51.3529 
 618   0.0000       1.891950        51.4826 
 619   0.0000       1.892200        51.4894 
 620   0.0000       1.893554        51.5262 
 621   0.0000       1.915867        52.1334 
 622   0.0000       1.916097        52.1396 
 623   0.0000       1.921621        52.2900 
 624   0.0000       1.932932        52.5978 
 625   0.0000       1.933300        52.6078 
 626   0.0000       1.939662        52.7809 
 627   0.0000       1.956953        53.2514 
 628   0.0000       1.957206        53.2583 
 629   0.0000       1.957447        53.2648 
 630   0.0000       1.963445        53.4281 
 631   0.0000       1.963902        53.4405 
 632   0.0000       1.977164        53.8014 
 633   0.0000       1.977438        53.8088 
 634   0.0000       1.988618        54.1130 
 635   0.0000       1.989474        54.1364 
 636   0.0000       1.989724        54.1431 
 637   0.0000       2.005791        54.5803 
 638   0.0000       2.016660        54.8761 
 639   0.0000       2.016908        54.8828 
 640   0.0000       2.023195        55.0539 
 641   0.0000       2.023559        55.0638 
 642   0.0000       2.023828        55.0712 
 643   0.0000       2.027141        55.1613 
 644   0.0000       2.040577        55.5269 
 645   0.0000       2.040748        55.5316 
 646   0.0000       2.041208        55.5441 
 647   0.0000       2.071703        56.3739 
 648   0.0000       2.071897        56.3792 
 649   0.0000       2.075508        56.4774 
 650   0.0000       2.083669        56.6995 
 651   0.0000       2.084827        56.7310 
 652   0.0000       2.085035        56.7367 
 653   0.0000       2.100450        57.1562 
 654   0.0000       2.100757        57.1645 
 655   0.0000       2.106176        57.3120 
 656   0.0000       2.111282        57.4509 
 657   0.0000       2.111502        57.4569 
 658   0.0000       2.123455        57.7822 
 659   0.0000       2.127447        57.8908 
 660   0.0000       2.130080        57.9624 
 661   0.0000       2.130283        57.9680 
 662   0.0000       2.137551        58.1657 
 663   0.0000       2.165929        58.9379 
 664   0.0000       2.166474        58.9528 
 665   0.0000       2.174668        59.1757 
 666   0.0000       2.174706        59.1768 
 667   0.0000       2.180497        59.3343 
 668   0.0000       2.181684        59.3667 
 669   0.0000       2.182352        59.3848 
 670   0.0000       2.213386        60.2293 
 671   0.0000       2.231083        60.7108 
 672   0.0000       2.231262        60.7157 
 673   0.0000       2.233356        60.7727 
 674   0.0000       2.262556        61.5673 
 675   0.0000       2.275724        61.9256 
 676   0.0000       2.276191        61.9383 
 677   0.0000       2.290783        62.3354 
 678   0.0000       2.291249        62.3481 
 679   0.0000       2.306556        62.7646 
 680   0.0000       2.324180        63.2442 
 681   0.0000       2.340767        63.6955 
 682   0.0000       2.341049        63.7032 
 683   0.0000       2.361726        64.2658 
 684   0.0000       2.362671        64.2915 
 685   0.0000       2.362921        64.2983 
 686   0.0000       2.378221        64.7147 
 687   0.0000       2.378607        64.7252 
 688   0.0000       2.393575        65.1325 
 689   0.0000       2.393725        65.1366 
 690   0.0000       2.400909        65.3321 
 691   0.0000       2.416950        65.7686 
 692   0.0000       2.434801        66.2543 
 693   0.0000       2.441747        66.4433 
 694   0.0000       2.442297        66.4583 
 695   0.0000       2.451466        66.7078 
 696   0.0000       2.451618        66.7119 
 697   0.0000       2.457959        66.8845 
 698   0.0000       2.470229        67.2184 
 699   0.0000       2.470304        67.2204 
 700   0.0000       2.470639        67.2295 
 701   0.0000       2.476242        67.3820 
 702   0.0000       2.487209        67.6804 
 703   0.0000       2.487346        67.6841 
 704   0.0000       2.510200        68.3060 
 705   0.0000       2.522309        68.6355 
 706   0.0000       2.522741        68.6473 
 707   0.0000       2.550498        69.4026 
 708   0.0000       2.558035        69.6077 
 709   0.0000       2.558285        69.6145 
 710   0.0000       2.581284        70.2403 
 711   0.0000       2.617515        71.2262 
 712   0.0000       2.617801        71.2340 
 713   0.0000       2.656138        72.2772 
 714   0.0000       2.656356        72.2831 
 715   0.0000       2.671331        72.6906 
 716   0.0000       2.683537        73.0228 
 717   0.0000       2.696383        73.3723 
 718   0.0000       2.696550        73.3769 
 719   0.0000       2.705247        73.6135 
 720   0.0000       2.721442        74.0542 
 721   0.0000       2.721592        74.0583 
 722   0.0000       2.778544        75.6080 
 723   0.0000       2.781202        75.6804 
 724   0.0000       2.781614        75.6916 
 725   0.0000       2.805038        76.3290 
 726   0.0000       2.810681        76.4825 
 727   0.0000       2.811066        76.4930 
 728   0.0000       2.838328        77.2348 
 729   0.0000       2.858642        77.7876 
 730   0.0000       2.858825        77.7926 
 731   0.0000       2.859962        77.8235 
 732   0.0000       2.873089        78.1807 
 733   0.0000       2.874115        78.2086 
 734   0.0000       2.874449        78.2177 
 735   0.0000       2.878787        78.3358 
 736   0.0000       2.890031        78.6418 
 737   0.0000       2.890470        78.6537 
 738   0.0000       2.890622        78.6578 
 739   0.0000       2.900408        78.9241 
 740   0.0000       2.900733        78.9329 
 741   0.0000       2.913472        79.2796 
 742   0.0000       2.913906        79.2914 
 743   0.0000       2.917014        79.3760 
 744   0.0000       2.924534        79.5806 
 745   0.0000       2.929175        79.7069 
 746   0.0000       2.929547        79.7170 
 747   0.0000       2.947930        80.2172 
 748   0.0000       2.948093        80.2217 
 749   0.0000       2.953178        80.3601 
 750   0.0000       2.959888        80.5426 
 751   0.0000       2.960041        80.5468 
 752   0.0000       2.964393        80.6652 
 753   0.0000       2.967755        80.7567 
 754   0.0000       2.970410        80.8290 
 755   0.0000       2.970553        80.8329 
 756   0.0000       2.980502        81.1036 
 757   0.0000       2.992626        81.4335 
 758   0.0000       2.992815        81.4386 
 759   0.0000       2.993244        81.4503 
 760   0.0000       3.007435        81.8365 
 761   0.0000       3.007609        81.8412 
 762   0.0000       3.020698        82.1974 
 763   0.0000       3.027860        82.3923 
 764   0.0000       3.028102        82.3988 
 765   0.0000       3.028987        82.4229 
 766   0.0000       3.041327        82.7587 
 767   0.0000       3.048596        82.9565 
 768   0.0000       3.048838        82.9631 
 769   0.0000       3.057021        83.1858 
 770   0.0000       3.057207        83.1908 
 771   0.0000       3.057594        83.2014 
 772   0.0000       3.070690        83.5577 
 773   0.0000       3.070717        83.5584 
 774   0.0000       3.084830        83.9425 
 775   0.0000       3.087893        84.0258 
 776   0.0000       3.088045        84.0300 
 777   0.0000       3.088462        84.0413 
 778   0.0000       3.096920        84.2715 
 779   0.0000       3.096956        84.2725 
 780   0.0000       3.102206        84.4153 
 781   0.0000       3.110478        84.6404 
 782   0.0000       3.110669        84.6456 
 783   0.0000       3.119188        84.8774 
 784   0.0000       3.119349        84.8818 
 785   0.0000       3.124173        85.0131 
 786   0.0000       3.129405        85.1554 
 787   0.0000       3.129750        85.1648 
 788   0.0000       3.144536        85.5672 
 789   0.0000       3.145094        85.5824 
 790   0.0000       3.145263        85.5870 
 791   0.0000       3.152887        85.7944 
 792   0.0000       3.153024        85.7982 
 793   0.0000       3.153873        85.8213 
 794   0.0000       3.164766        86.1177 
 795   0.0000       3.166236        86.1577 
 796   0.0000       3.166615        86.1680 
 797   0.0000       3.188259        86.7569 
 798   0.0000       3.188533        86.7644 
 799   0.0000       3.193680        86.9045 
 800   0.0000       3.200406        87.0875 
 801   0.0000       3.200830        87.0990 
 802   0.0000       3.202723        87.1505 
 803   0.0000       3.210070        87.3504 
 804   0.0000       3.229436        87.8774 
 805   0.0000       3.229647        87.8832 
 806   0.0000       3.237824        88.1057 
 807   0.0000       3.242409        88.2304 
 808   0.0000       3.242776        88.2404 
 809   0.0000       3.252810        88.5135 
 810   0.0000       3.257576        88.6432 
 811   0.0000       3.257677        88.6459 
 812   0.0000       3.267828        88.9221 
 813   0.0000       3.276947        89.1703 
 814   0.0000       3.283507        89.3488 
 815   0.0000       3.283523        89.3492 
 816   0.0000       3.289549        89.5132 
 817   0.0000       3.289946        89.5240 
 818   0.0000       3.293527        89.6214 
 819   0.0000       3.293936        89.6326 
 820   0.0000       3.296193        89.6940 
 821   0.0000       3.300533        89.8121 
 822   0.0000       3.310951        90.0956 
 823   0.0000       3.311107        90.0998 
 824   0.0000       3.319207        90.3202 
 825   0.0000       3.329937        90.6122 
 826   0.0000       3.330505        90.6276 
 827   0.0000       3.330790        90.6354 
 828   0.0000       3.337813        90.8265 
 829   0.0000       3.338004        90.8317 
 830   0.0000       3.348073        91.1057 
 831   0.0000       3.349929        91.1562 
 832   0.0000       3.350166        91.1626 
 833   0.0000       3.361263        91.4646 
 834   0.0000       3.362553        91.4997 
 835   0.0000       3.362846        91.5077 
 836   0.0000       3.379063        91.9490 
 837   0.0000       3.382745        92.0492 
 838   0.0000       3.382931        92.0542 
 839   0.0000       3.391943        92.2995 
 840   0.0000       3.394005        92.3556 
 841   0.0000       3.398951        92.4902 
 842   0.0000       3.399235        92.4979 
 843   0.0000       3.408309        92.7448 
 844   0.0000       3.408443        92.7484 
 845   0.0000       3.427069        93.2553 
 846   0.0000       3.427159        93.2577 
 847   0.0000       3.428758        93.3012 
 848   0.0000       3.437270        93.5329 
 849   0.0000       3.444501        93.7296 
 850   0.0000       3.444560        93.7312 
 851   0.0000       3.451572        93.9220 
 852   0.0000       3.459139        94.1280 
 853   0.0000       3.459652        94.1419 
 854   0.0000       3.460027        94.1521 
 855   0.0000       3.463578        94.2487 
 856   0.0000       3.463686        94.2517 
 857   0.0000       3.496889        95.1552 
 858   0.0000       3.497201        95.1637 
 859   0.0000       3.501217        95.2730 
 860   0.0000       3.517467        95.7152 
 861   0.0000       3.517629        95.7196 
 862   0.0000       3.523748        95.8861 
 863   0.0000       3.536457        96.2319 
 864   0.0000       3.548087        96.5483 
 865   0.0000       3.548427        96.5576 
 866   0.0000       3.560984        96.8993 
 867   0.0000       3.561176        96.9045 
 868   0.0000       3.564505        96.9951 
 869   0.0000       3.567197        97.0684 
 870   0.0000       3.576257        97.3149 
 871   0.0000       3.587756        97.6278 
 872   0.0000       3.587804        97.6291 
 873   0.0000       3.594296        97.8058 
 874   0.0000       3.601527        98.0025 
 875   0.0000       3.601580        98.0040 
 876   0.0000       3.602427        98.0270 
 877   0.0000       3.614247        98.3487 
 878   0.0000       3.614348        98.3514 
 879   0.0000       3.620383        98.5156 
[...]
      dx2y2   :     0.009414
      dxy     :     0.008411
 16 H s       :     0.703437  s :     0.703437
      pz      :     0.097452  p :     0.313317
      px      :     0.083302
      py      :     0.132562
      dz2     :     0.004605  d :     0.030875
      dxz     :     0.001301
      dyz     :     0.009570
      dx2y2   :     0.006766
      dxy     :     0.008632
 17 H s       :     0.699604  s :     0.699604
      pz      :     0.108296  p :     0.342369
      px      :     0.123889
      py      :     0.110184
      dz2     :     0.006607  d :     0.031021
      dxz     :     0.006325
      dyz     :     0.004914
      dx2y2   :     0.007264
      dxy     :     0.005912
 18 C s       :     2.688992  s :     2.688992
      pz      :     0.943214  p :     2.823134
      px      :     0.936952
      py      :     0.942969
      dz2     :     0.077967  d :     0.487576
      dxz     :     0.088975
      dyz     :     0.090972
      dx2y2   :     0.106418
      dxy     :     0.123243
      f0      :     0.003662  f :     0.020223
      f+1     :     0.002557
      f-1     :     0.001538
      f+2     :     0.003557
      f-2     :     0.002982
      f+3     :     0.002372
      f-3     :     0.003556
 19 H s       :     0.705067  s :     0.705067
      pz      :     0.096487  p :     0.311629
      px      :     0.090623
      py      :     0.124519
      dz2     :     0.005784  d :     0.030822
      dxz     :     0.002653
      dyz     :     0.008059
      dx2y2   :     0.006918
      dxy     :     0.007408
 20 H s       :     0.696151  s :     0.696151
      pz      :     0.142894  p :     0.329658
      px      :     0.091467
      py      :     0.095297
      dz2     :     0.009851  d :     0.031106
      dxz     :     0.009304
      dyz     :     0.009064
      dx2y2   :     0.001169
      dxy     :     0.001716
 21 H s       :     0.703236  s :     0.703236
      pz      :     0.101598  p :     0.337147
      px      :     0.122250
      py      :     0.113299
      dz2     :     0.005658  d :     0.030962
      dxz     :     0.006814
      dyz     :     0.003785
      dx2y2   :     0.007953
      dxy     :     0.006753
 22 C s       :     2.690320  s :     2.690320
      pz      :     0.942801  p :     2.828867
      px      :     0.942800
      py      :     0.943267
      dz2     :     0.109196  d :     0.485018
      dxz     :     0.069866
      dyz     :     0.085086
      dx2y2   :     0.078851
      dxy     :     0.142019
      f0      :     0.003092  f :     0.020201
      f+1     :     0.003466
      f-1     :     0.002338
      f+2     :     0.002409
      f-2     :     0.002855
      f+3     :     0.002178
      f-3     :     0.003863
 23 H s       :     0.706403  s :     0.706403
      pz      :     0.101300  p :     0.311585
      px      :     0.110546
      py      :     0.099739
      dz2     :     0.006508  d :     0.030766
      dxz     :     0.006152
      dyz     :     0.004502
      dx2y2   :     0.006799
      dxy     :     0.006805
 24 H s       :     0.702721  s :     0.702721
      pz      :     0.087060  p :     0.322716
      px      :     0.129384
      py      :     0.106272
      dz2     :     0.002748  d :     0.031096
      dxz     :     0.007269
      dyz     :     0.002926
      dx2y2   :     0.009415
      dxy     :     0.008737
 25 H s       :     0.700270  s :     0.700270
      pz      :     0.135124  p :     0.315270
      px      :     0.091323
      py      :     0.088824
      dz2     :     0.010577  d :     0.031193
      dxz     :     0.009328
      dyz     :     0.009142
      dx2y2   :     0.000936
      dxy     :     0.001210
 26 C s       :     2.689751  s :     2.689751
      pz      :     0.947255  p :     2.822510
      px      :     0.936308
      py      :     0.938947
      dz2     :     0.126964  d :     0.493279
      dxz     :     0.091605
      dyz     :     0.128244
      dx2y2   :     0.054653
      dxy     :     0.091813
      f0      :     0.003396  f :     0.020284
      f+1     :     0.002517
      f-1     :     0.002542
      f+2     :     0.003606
      f-2     :     0.002969
      f+3     :     0.000469
      f-3     :     0.004784
 27 H s       :     0.703457  s :     0.703457
      pz      :     0.097453  p :     0.313330
      px      :     0.117411
      py      :     0.098466
      dz2     :     0.004606  d :     0.030875
      dxz     :     0.006668
      dyz     :     0.004209
      dx2y2   :     0.008163
      dxy     :     0.007230
 28 H s       :     0.699745  s :     0.699745
      pz      :     0.108378  p :     0.341961
      px      :     0.090797
      py      :     0.142787
      dz2     :     0.006632  d :     0.031021
      dxz     :     0.002687
      dyz     :     0.008565
      dx2y2   :     0.005715
      dxy     :     0.007422
 29 H s       :     0.700363  s :     0.700363
      pz      :     0.097354  p :     0.342527
      px      :     0.139990
      py      :     0.105182
      dz2     :     0.002788  d :     0.031055
      dxz     :     0.007257
      dyz     :     0.003172
      dx2y2   :     0.009443
      dxy     :     0.008395
 30 C s       :     2.688937  s :     2.688937
      pz      :     0.943181  p :     2.823000
      px      :     0.944833
      py      :     0.934985
      dz2     :     0.077434  d :     0.487667
      dxz     :     0.103150
      dyz     :     0.077584
      dx2y2   :     0.124805
      dxy     :     0.104694
      f0      :     0.003652  f :     0.020224
      f+1     :     0.003361
      f-1     :     0.000743
      f+2     :     0.003246
      f-2     :     0.003298
      f+3     :     0.002357
      f-3     :     0.003567
 31 H s       :     0.705055  s :     0.705055
      pz      :     0.096489  p :     0.311612
      px      :     0.109064
      py      :     0.106058
      dz2     :     0.005782  d :     0.030823
      dxz     :     0.005501
      dyz     :     0.005223
      dx2y2   :     0.007913
      dxy     :     0.006404
 32 H s       :     0.696116  s :     0.696116
      pz      :     0.142822  p :     0.329666
      px      :     0.100265
      py      :     0.086579
      dz2     :     0.009838  d :     0.031104
      dxz     :     0.009433
      dyz     :     0.008895
      dx2y2   :     0.001418
      dxy     :     0.001520
 33 H s       :     0.703103  s :     0.703103
      pz      :     0.101840  p :     0.337677
      px      :     0.098434
      py      :     0.137402
      dz2     :     0.005676  d :     0.030963
      dxz     :     0.002080
      dyz     :     0.008537
      dx2y2   :     0.006506
      dxy     :     0.008164
 34 C s       :     2.690291  s :     2.690291
      pz      :     0.942813  p :     2.828830
      px      :     0.944573
      py      :     0.941444
      dz2     :     0.109328  d :     0.485103
      dxz     :     0.107597
      dyz     :     0.047150
      dx2y2   :     0.145858
      dxy     :     0.075171
      f0      :     0.003094  f :     0.020202
      f+1     :     0.001681
      f-1     :     0.004119
      f+2     :     0.002155
      f-2     :     0.003110
      f+3     :     0.002166
      f-3     :     0.003877
 35 H s       :     0.706384  s :     0.706384
      pz      :     0.101311  p :     0.311564
      px      :     0.118967
      py      :     0.091285
      dz2     :     0.006513  d :     0.030767
      dxz     :     0.007140
      dyz     :     0.003515
      dx2y2   :     0.007474
      dxy     :     0.006124
 36 H s       :     0.702713  s :     0.702713
      pz      :     0.087044  p :     0.322831
      px      :     0.092622
      py      :     0.143165
      dz2     :     0.002751  d :     0.031094
      dxz     :     0.000057
      dyz     :     0.010134
      dx2y2   :     0.008041
      dxy     :     0.010111
 37 H s       :     0.700256  s :     0.700256
      pz      :     0.135195  p :     0.315319
      px      :     0.090425
      py      :     0.089699
      dz2     :     0.010578  d :     0.031194
      dxz     :     0.009453
      dyz     :     0.009033
      dx2y2   :     0.001326
      dxy     :     0.000803
 38 C s       :     2.689725  s :     2.689725
      pz      :     0.947249  p :     2.822468
      px      :     0.940765
      py      :     0.934455
      dz2     :     0.127141  d :     0.493416
      dxz     :     0.141835
      dyz     :     0.077990
      dx2y2   :     0.094406
      dxy     :     0.052043
      f0      :     0.003407  f :     0.020285
      f+1     :     0.002172
      f-1     :     0.002873
      f+2     :     0.003173
      f-2     :     0.003410
      f+3     :     0.000462
      f-3     :     0.004790
 39 H s       :     0.703461  s :     0.703461
      pz      :     0.097471  p :     0.313346
      px      :     0.123108
      py      :     0.092767
      dz2     :     0.004610  d :     0.030876
      dxz     :     0.008344
      dyz     :     0.002533
      dx2y2   :     0.008156
      dxy     :     0.007234
 40 H s       :     0.699690  s :     0.699690
      pz      :     0.108318  p :     0.342129
      px      :     0.136331
      py      :     0.097480
      dz2     :     0.006617  d :     0.031022
      dxz     :     0.007879
      dyz     :     0.003367
      dx2y2   :     0.006760
      dxy     :     0.006398
 41 H s       :     0.700367  s :     0.700367
      pz      :     0.097341  p :     0.342457
      px      :     0.090681
      py      :     0.154435
      dz2     :     0.002793  d :     0.031059
      dxz     :     0.000070
      dyz     :     0.010360
      dx2y2   :     0.007896
      dxy     :     0.009940
 42 C s       :     2.688990  s :     2.688990
      pz      :     0.943245  p :     2.823170
      px      :     0.938111
      py      :     0.941814
      dz2     :     0.077706  d :     0.487527
      dxz     :     0.078318
      dyz     :     0.102003
      dx2y2   :     0.113008
      dxy     :     0.116492
      f0      :     0.003656  f :     0.020223
      f+1     :     0.000224
      f-1     :     0.003878
      f+2     :     0.003019
      f-2     :     0.003520
      f+3     :     0.002368
      f-3     :     0.003558
 43 H s       :     0.705094  s :     0.705094
      pz      :     0.096641  p :     0.311598
      px      :     0.122890
      py      :     0.092068
      dz2     :     0.005813  d :     0.030823
      dxz     :     0.007921
      dyz     :     0.002814
      dx2y2   :     0.006631
      dxy     :     0.007644
 44 H s       :     0.696135  s :     0.696135
      pz      :     0.142816  p :     0.329618
      px      :     0.088485
      py      :     0.098318
      dz2     :     0.009844  d :     0.031106
      dxz     :     0.008788
      dyz     :     0.009564
      dx2y2   :     0.001775
      dxy     :     0.001136
 45 H s       :     0.703243  s :     0.703243
      pz      :     0.101527  p :     0.337260
      px      :     0.133107
      py      :     0.102626
      dz2     :     0.005633  d :     0.030963
      dxz     :     0.007046
      dyz     :     0.003548
      dx2y2   :     0.007600
      dxy     :     0.007137


                      *****************************
                      * MAYER POPULATION ANALYSIS *
                      *****************************

  NA   - Mulliken gross atomic population
  ZA   - Total nuclear charge
  QA   - Mulliken gross atomic charge
  VA   - Mayer's total valence
  BVA  - Mayer's bonded valence
  FA   - Mayer's free valence

  ATOM       NA         ZA         QA         VA         BVA        FA
  0 Mo    14.6264    14.0000    -0.6264     5.7727     5.7727     0.0000
  1 C      5.7270     6.0000     0.2730     2.7702     2.7702     0.0000
  2 C      5.7297     6.0000     0.2703     2.7713     2.7713     0.0000
  3 C      5.7295     6.0000     0.2705     2.7709     2.7709    -0.0000
  4 O      8.4743     8.0000    -0.4743     1.8047     1.8047     0.0000
  5 O      8.4739     8.0000    -0.4739     1.8052     1.8052    -0.0000
  6 O      8.4736     8.0000    -0.4736     1.8050     1.8050     0.0000
  7 P     13.6879    15.0000     1.3121     2.2022     2.2022    -0.0000
  8 P     13.7009    15.0000     1.2991     2.2153     2.2153    -0.0000
  9 P     13.7061    15.0000     1.2939     2.2203     2.2203    -0.0000
 10 C      7.4309     6.0000    -1.4309     3.5227     3.5227     0.0000
 11 H      0.5571     1.0000     0.4429     0.9100     0.9100     0.0000
 12 H      0.6802     1.0000     0.3198     1.0436     1.0436     0.0000
 13 H      0.6862     1.0000     0.3138     1.0584     1.0584     0.0000
 14 C      7.2511     6.0000    -1.2511     3.6763     3.6763     0.0000
 15 H      0.6954     1.0000     0.3046     1.0178     1.0178     0.0000
 16 H      0.5477     1.0000     0.4523     0.9221     0.9221     0.0000
 17 H      0.7846     1.0000     0.2154     1.1972     1.1972     0.0000
 18 C      7.2100     6.0000    -1.2100     3.6925     3.6925     0.0000
 19 H      0.5819     1.0000     0.4181     0.9560     0.9560     0.0000
 20 H      0.7025     1.0000     0.2975     1.0830     1.0830     0.0000
 21 H      0.7565     1.0000     0.2435     1.0683     1.0683    -0.0000
 22 C      7.4325     6.0000    -1.4325     3.5246     3.5246     0.0000
 23 H      0.5580     1.0000     0.4420     0.9114     0.9114     0.0000
 24 H      0.6804     1.0000     0.3196     1.0431     1.0431     0.0000
 25 H      0.6837     1.0000     0.3163     1.0557     1.0557    -0.0000
 26 C      7.2561     6.0000    -1.2561     3.6740     3.6740     0.0000
 27 H      0.5480     1.0000     0.4520     0.9226     0.9226     0.0000
 28 H      0.7836     1.0000     0.2164     1.1959     1.1959     0.0000
 29 H      0.6955     1.0000     0.3045     1.0171     1.0171     0.0000
 30 C      7.2132     6.0000    -1.2132     3.6977     3.6977    -0.0000
 31 H      0.5834     1.0000     0.4166     0.9588     0.9588    -0.0000
 32 H      0.7039     1.0000     0.2961     1.0865     1.0865    -0.0000
 33 H      0.7553     1.0000     0.2447     1.0643     1.0643    -0.0000
 34 C      7.4347     6.0000    -1.4347     3.5244     3.5244     0.0000
 35 H      0.5580     1.0000     0.4420     0.9115     0.9115     0.0000
 36 H      0.6793     1.0000     0.3207     1.0416     1.0416     0.0000
 37 H      0.6844     1.0000     0.3156     1.0570     1.0570     0.0000
 38 C      7.2506     6.0000    -1.2506     3.6729     3.6729     0.0000
 39 H      0.5487     1.0000     0.4513     0.9231     0.9231     0.0000
 40 H      0.7827     1.0000     0.2173     1.1932     1.1932     0.0000
 41 H      0.6980     1.0000     0.3020     1.0196     1.0196     0.0000
 42 C      7.2151     6.0000    -1.2151     3.6949     3.6949    -0.0000
 43 H      0.5838     1.0000     0.4162     0.9590     0.9590    -0.0000
 44 H      0.7023     1.0000     0.2977     1.0829     1.0829    -0.0000
 45 H      0.7556     1.0000     0.2444     1.0642     1.0642    -0.0000

  Mayer bond orders larger than 0.100000
B(  0-Mo,  1-C ) :   1.2386 B(  0-Mo,  2-C ) :   1.2379 B(  0-Mo,  3-C ) :   1.2340 
B(  0-Mo,  7-P ) :   0.4918 B(  0-Mo,  8-P ) :   0.4894 B(  0-Mo,  9-P ) :   0.4918 
B(  0-Mo, 10-C ) :   0.1003 B(  1-C ,  2-C ) :  -0.1505 B(  1-C ,  3-C ) :  -0.1506 
B(  1-C ,  5-O ) :   1.6730 B(  2-C ,  3-C ) :  -0.1499 B(  2-C ,  6-O ) :   1.6723 
B(  3-C ,  4-O ) :   1.6723 B(  7-P ,  8-P ) :   0.1661 B(  7-P ,  9-P ) :   0.1663 
B(  7-P , 34-C ) :   0.4412 B(  7-P , 38-C ) :   0.6192 B(  7-P , 42-C ) :   0.5669 
B(  8-P ,  9-P ) :   0.1690 B(  8-P , 22-C ) :   0.4419 B(  8-P , 26-C ) :   0.6195 
B(  8-P , 30-C ) :   0.5706 B(  9-P , 10-C ) :   0.4386 B(  9-P , 14-C ) :   0.6245 
B(  9-P , 18-C ) :   0.5722 B( 10-C , 11-H ) :   0.8215 B( 10-C , 12-H ) :   0.9829 
B( 10-C , 13-H ) :   0.9818 B( 10-C , 18-C ) :   0.1091 B( 14-C , 15-H ) :   0.9549 
B( 14-C , 16-H ) :   0.8323 B( 14-C , 17-H ) :   1.0597 B( 14-C , 18-C ) :   0.1049 
B( 18-C , 19-H ) :   0.8638 B( 18-C , 20-H ) :   0.9761 B( 18-C , 21-H ) :   1.0089 
B( 22-C , 23-H ) :   0.8231 B( 22-C , 24-H ) :   0.9812 B( 22-C , 25-H ) :   0.9792 
B( 22-C , 30-C ) :   0.1097 B( 26-C , 27-H ) :   0.8327 B( 26-C , 28-H ) :   1.0607 
B( 26-C , 29-H ) :   0.9555 B( 26-C , 30-C ) :   0.1063 B( 30-C , 31-H ) :   0.8661 
B( 30-C , 32-H ) :   0.9772 B( 30-C , 33-H ) :   1.0079 B( 34-C , 35-H ) :   0.8237 
B( 34-C , 36-H ) :   0.9802 B( 34-C , 37-H ) :   0.9803 B( 34-C , 42-C ) :   0.1090 
B( 38-C , 39-H ) :   0.8341 B( 38-C , 40-H ) :   1.0577 B( 38-C , 41-H ) :   0.9563 
B( 38-C , 42-C ) :   0.1057 B( 42-C , 43-H ) :   0.8665 B( 42-C , 44-H ) :   0.9765 
B( 42-C , 45-H ) :   1.0095 

-------
TIMINGS
-------

Total SCF time: 0 days 0 hours 43 min 4 sec 

Total time                  ....    2584.562 sec
Sum of individual times     ....    2581.665 sec  ( 99.9%)

Fock matrix formation       ....    2568.539 sec  ( 99.4%)
  XC integration            ....      24.948 sec  (  1.0% of F)
    Basis function eval.    ....       2.463 sec  (  9.9% of XC)
    Density eval.           ....       9.705 sec  ( 38.9% of XC)
    XC-Functional eval.     ....       0.175 sec  (  0.7% of XC)
    XC-Potential eval.      ....       9.388 sec  ( 37.6% of XC)
Diagonalization             ....       3.750 sec  (  0.1%)
Density matrix formation    ....       0.208 sec  (  0.0%)
Population analysis         ....       0.403 sec  (  0.0%)
Initial guess               ....       3.355 sec  (  0.1%)
Orbital Transformation      ....       0.000 sec  (  0.0%)
Orbital Orthonormalization  ....       0.000 sec  (  0.0%)
DIIS solution               ....       4.189 sec  (  0.2%)
Grid generation             ....       1.222 sec  (  0.0%)

-------------------------   --------------------
FINAL SINGLE POINT ENERGY     -1791.549975834806
-------------------------   --------------------


                            ***************************************
                            *     ORCA property calculations      *
                            ***************************************

                                    ---------------------
                                    Active property flags
                                    ---------------------
   (+) Dipole Moment


------------------------------------------------------------------------------
                       ORCA ELECTRIC PROPERTIES CALCULATION
------------------------------------------------------------------------------

Dipole Moment Calculation                       ... on
Quadrupole Moment Calculation                   ... off
Polarizability Calculation                      ... off
GBWName                                         ... MOR37_pr38.gbw
Electron density file                           ... MOR37_pr38.scfp
The origin for moment calculation is the CENTER OF MASS  = ( 0.000065, -0.000237 -0.171282)

-------------
DIPOLE MOMENT
-------------
                                X             Y             Z
Electronic contribution:      0.03078      -0.08954     -63.26467
Nuclear contribution   :     -0.03125       0.09337      66.31953
                        -----------------------------------------
Total Dipole Moment    :     -0.00048       0.00384       3.05486
                        -----------------------------------------
Magnitude (a.u.)       :      3.05486
Magnitude (Debye)      :      7.76485



--------------------
Rotational spectrum 
--------------------
 
Rotational constants in cm-1:     0.008677     0.008672     0.007610 
Rotational constants in MHz :   260.126059   259.983430   228.154635 

 Dipole components along the rotational axes: 
x,y,z [a.u.] :    -0.000641     0.004248     3.054862 
x,y,z [Debye]:    -0.001630     0.010798     7.764841 

 

Timings for individual modules:

Sum of individual times         ...     2592.136 sec (=  43.202 min)
GTO integral calculation        ...        7.165 sec (=   0.119 min)   0.3 %
SCF iterations                  ...     2584.970 sec (=  43.083 min)  99.7 %
                             ****ORCA TERMINATED NORMALLY****
TOTAL RUN TIME: 0 days 0 hours 43 minutes 12 seconds 855 msec
