
                                 *****************
                                 * O   R   C   A *
                                 *****************

           --- An Ab Initio, DFT and Semiempirical electronic structure package ---

                  #######################################################
                  #                        -***-                        #
                  #          Department of theory and spectroscopy      #
                  #               Directorship: Frank Neese             #
                  #        Max Planck Institute fuer Kohlenforschung    #
                  #                Kaiser Wilhelm Platz 1               #
                  #                 D-45470 Muelheim/Ruhr               #
                  #                      Germany                        #
                  #                                                     #
                  #                  All rights reserved                #
                  #                        -***-                        #
                  #######################################################


                         Program Version 4.2.0 -  RELEASE  -


 With contributions from (in alphabetic order):
   Daniel Aravena         : Magnetic Suceptibility
   Michael Atanasov       : Ab Initio Ligand Field Theory (pilot matlab implementation)
   Alexander A. Auer      : GIAO ZORA, VPT2
   Ute Becker             : Parallelization
   Giovanni Bistoni       : ED, misc. LED, open-shell LED, HFLED
   Martin Brehm           : Molecular dynamics
   Dmytro Bykov           : SCF Hessian
   Vijay G. Chilkuri      : MRCI spin determinant printing, contributions to CSF-ICE
   Dipayan Datta          : RHF DLPNO-CCSD density
   Achintya Kumar Dutta   : EOM-CC, STEOM-CC
   Dmitry Ganyushin       : Spin-Orbit,Spin-Spin,Magnetic field MRCI
   Miquel Garcia          : C-PCM Hessian, Gaussian charge scheme
   Yang Guo               : DLPNO-NEVPT2, CIM, IAO-localization
   Andreas Hansen         : Spin unrestricted coupled pair/coupled cluster methods
   Benjamin Helmich-Paris : CASSCF linear response (MC-RPA)
   Lee Huntington         : MR-EOM, pCC
   Robert Izsak           : Overlap fitted RIJCOSX, COSX-SCS-MP3, EOM
   Christian Kollmar      : KDIIS, OOCD, Brueckner-CCSD(T), CCSD density
   Simone Kossmann        : Meta GGA functionals, TD-DFT gradient, OOMP2, MP2 Hessian
   Martin Krupicka        : AUTO-CI
   Lucas Lang             : DCDCAS
   Dagmar Lenk            : GEPOL surface, SMD
   Dimitrios Liakos       : Extrapolation schemes; Compound Job, initial MDCI parallelization
   Dimitrios Manganas     : Further ROCIS development; embedding schemes
   Dimitrios Pantazis     : SARC Basis sets
   Taras Petrenko         : DFT Hessian,TD-DFT gradient, ASA, ECA, R-Raman, ABS, FL, XAS/XES, NRVS
   Peter Pinski           : DLPNO-MP2, DLPNO-MP2 Gradient
   Christoph Reimann      : Effective Core Potentials
   Marius Retegan         : Local ZFS, SOC
   Christoph Riplinger    : Optimizer, TS searches, QM/MM, DLPNO-CCSD(T), (RO)-DLPNO pert. Triples
   Tobias Risthaus        : Range-separated hybrids, TD-DFT gradient, RPA, STAB
   Michael Roemelt        : Original ROCIS implementation
   Masaaki Saitow         : Open-shell DLPNO-CCSD energy and density
   Barbara Sandhoefer     : DKH picture change effects
   Avijit Sen             : IP-ROCIS
   Kantharuban Sivalingam : CASSCF convergence, NEVPT2, FIC-MRCI
   Bernardo de Souza      : ESD, SOC TD-DFT
   Georgi Stoychev        : AutoAux, RI-MP2 NMR
   Willem Van den Heuvel  : Paramagnetic NMR
   Boris Wezisla          : Elementary symmetry handling
   Frank Wennmohs         : Technical directorship


 We gratefully acknowledge several colleagues who have allowed us to
 interface, adapt or use parts of their codes:
   Stefan Grimme, W. Hujo, H. Kruse,             : VdW corrections, initial TS optimization,
                  C. Bannwarth                     DFT functionals, gCP, sTDA/sTD-DF
   Ed Valeev, F. Pavosevic, A. Kumar             : LibInt (2-el integral package), F12 methods
   Garnet Chan, S. Sharma, J. Yang, R. Olivares  : DMRG
   Ulf Ekstrom                                   : XCFun DFT Library
   Mihaly Kallay                                 : mrcc  (arbitrary order and MRCC methods)
   Andreas Klamt, Michael Diedenhofen            : otool_cosmo (COSMO solvation model)
   Jiri Pittner, Ondrej Demel                    : Mk-CCSD
   Frank Weinhold                                : gennbo (NPA and NBO analysis)
   Christopher J. Cramer and Donald G. Truhlar   : smd solvation model
   Lars Goerigk                                  : TD-DFT with DH, B97 family of functionals
   V. Asgeirsson, H. Jonsson                     : NEB implementation
   FAccTs GmbH                                   : IRC, NEB, NEB-TS, Multilevel, MM, QM/MM, CI optimization
   S Lehtola, MJT Oliveira, MAL Marques          : LibXC Library


 Your calculation uses the libint2 library for the computation of 2-el integrals
 For citations please refer to: http://libint.valeyev.net

 Your ORCA version has been built with support for libXC version: 4.2.3
 For citations please refer to: https://tddft.org/programs/libxc/

 This ORCA versions uses:
   CBLAS   interface :  Fast vector & matrix operations
   LAPACKE interface :  Fast linear algebra routines
   SCALAPACK package :  Parallel linear algebra routines


Your calculation utilizes the DFT-NL dispersion correction.
Cite in your paper:
Vydrov, O. A.; Van Voorhis, T. J. Chem. Phys. 2010, 133, 244103
Hujo, W.; Grimme, S. J. Chem. Theory Comput. 2011, 7, 3866 
   

----- Orbital basis set information -----
Your calculation utilizes the basis: def2-TZVPPD
   F. Weigend and R. Ahlrichs, Phys. Chem. Chem. Phys. 7, 3297 (2005).
   D. Rappoport and F. Furche, J. Chem. Phys. 133 134105 (2010).

----- AuxJK basis set information -----
Your calculation utilizes the auxiliary basis: def2/JK
   H-Ba, Hf-Rn: F. Weigend, J. Comput. Chem. 29, 167 (2008).

cite the ECPs for Mo [Def2-ECP] as follows:
Ce-Yb(ecp-28): M. Dolg, H. Stoll, H.Preuss, J. Chem. Phys., 1989, 90, 1730-1734.
Y-Cd(ecp-28), Hf-Hg(ecp-46): D. Andrae,U. Haeussermann, M. Dolg, H. Stoll, H. Preuss, Theor. Chim. Acta, 1990, 77, 123-141.
In-Sb(ecp-28), Tl-Bi(ecp-46): B. Metz, H. Stoll, M. Dolg, J. Chem. Phys., 2000, 113, 2563-2569.
Te-Xe(ecp-28), Po-Rn(ecp-46): K. A. Peterson, D. Figgen, E. Goll, H. Stoll, M. Dolg, J. Chem. Phys., 2003, 119, 11113-11123.
Rb(ecp-28), Cs(ecp-46): T. Leininger, A. Nicklass, W. Kuechle, H. Stoll, M. Dolg, A. Bergner, Chem. Phys. Lett., 1996, 255, 274-280.
Sr(ecp-28), Ba(ecp-46): M. Kaupp, P. V. Schleyer, H. Stoll and H. Preuss, J. Chem. Phys., 1991, 94, 1360-1366.
La(ecp-46): M. Dolg, H. Stoll, A. Savin, H. Preuss, Theor. Chim. Acta, 1989, 75, 173-194.
Lu(ecp-28): X. Cao, M. Dolg, J. Chem. Phys., 2001, 115, 7348-7355.

ECP parameters for Mo [Def2-ECP] have been obtained from:
TURBOMOLE (7.0.2)

================================================================================
                                        WARNINGS
                       Please study these warnings very carefully!
================================================================================


INFO   : the flag for use of LIBINT has been found!

================================================================================
                                       INPUT FILE
================================================================================
NAME = TMB09_T1.in
|  1> #
|  2> # TMB09_T1 wB97M-V/Def2-TZVPPD
|  3> #
|  4> ! wb97m-v def2-tzvppd def2/jk grid4 nofinalgrid
|  5> 
|  6> *xyz 0 1
|  7> Mo       0.144293   -0.018278    0.187956 
|  8> C       -1.882744   -1.070987   -0.485243 
|  9> C       -1.076439    2.809087   -0.488683 
| 10> H       -1.056313    3.572787    0.310053 
| 11> H       -2.117393    2.730299   -0.852689 
| 12> H       -0.453643    3.172151   -1.326804 
| 13> C        1.996084   -2.290843   -0.946924 
| 14> C        2.556730    1.794509   -0.039409 
| 15> N       -0.610025    1.553803    0.004719 
| 16> O        1.936938    0.565567   -0.322724 
| 17> O        0.833025   -1.766355   -0.360705 
| 18> H        1.780871   -2.689531   -1.957376 
| 19> H        2.380311   -3.126092   -0.331250 
| 20> H        2.779790   -1.516765   -1.025980 
| 21> H        3.470410    1.892833   -0.654307 
| 22> H        2.854397    1.863620    1.026056 
| 23> H        1.897937    2.657406   -0.259961 
| 24> C       -0.134457   -0.284271    2.087106 
| 25> C       -1.864166   -1.358035    0.884748 
| 26> H        0.299474   -1.167843    2.578202 
| 27> H       -0.661177    0.399181    2.762773 
| 28> H       -1.449974   -2.303708    1.234049 
| 29> H       -2.567349   -0.858578    1.555883 
| 30> C       -2.930318   -0.174171   -1.105185 
| 31> H       -2.557155    0.344677   -2.001613 
| 32> H       -3.799822   -0.779414   -1.421129 
| 33> H       -3.293476    0.582538   -0.393193 
| 34> H       -1.444854   -1.827941   -1.140932 
| 35> *
| 36> 
| 37> %maxcore 5000
| 38> 
| 39> %pal
| 40> nprocs = 24
| 41> end
| 42> 
| 43> 
| 44>                          ****END OF INPUT****
================================================================================

                       ****************************
                       * Single Point Calculation *
                       ****************************

---------------------------------
CARTESIAN COORDINATES (ANGSTROEM)
---------------------------------
  Mo     0.144293   -0.018278    0.187956
  C     -1.882744   -1.070987   -0.485243
  C     -1.076439    2.809087   -0.488683
  H     -1.056313    3.572787    0.310053
  H     -2.117393    2.730299   -0.852689
  H     -0.453643    3.172151   -1.326804
  C      1.996084   -2.290843   -0.946924
  C      2.556730    1.794509   -0.039409
  N     -0.610025    1.553803    0.004719
  O      1.936938    0.565567   -0.322724
  O      0.833025   -1.766355   -0.360705
  H      1.780871   -2.689531   -1.957376
  H      2.380311   -3.126092   -0.331250
  H      2.779790   -1.516765   -1.025980
  H      3.470410    1.892833   -0.654307
  H      2.854397    1.863620    1.026056
  H      1.897937    2.657406   -0.259961
  C     -0.134457   -0.284271    2.087106
  C     -1.864166   -1.358035    0.884748
  H      0.299474   -1.167843    2.578202
  H     -0.661177    0.399181    2.762773
  H     -1.449974   -2.303708    1.234049
  H     -2.567349   -0.858578    1.555883
  C     -2.930318   -0.174171   -1.105185
  H     -2.557155    0.344677   -2.001613
  H     -3.799822   -0.779414   -1.421129
  H     -3.293476    0.582538   -0.393193
  H     -1.444854   -1.827941   -1.140932

----------------------------
CARTESIAN COORDINATES (A.U.)
----------------------------
  NO LB      ZA    FRAG     MASS         X           Y           Z
   0 Mo   14.0000*   0    95.940    0.272674   -0.034540    0.355185
   1 C     6.0000    0    12.011   -3.557871   -2.023872   -0.916976
   2 C     6.0000    0    12.011   -2.034175    5.308405   -0.923477
   3 H     1.0000    0     1.008   -1.996142    6.751589    0.585915
   4 H     1.0000    0     1.008   -4.001293    5.159517   -1.611349
   5 H     1.0000    0     1.008   -0.857261    5.994497   -2.507296
   6 C     6.0000    0    12.011    3.772052   -4.329066   -1.789427
   7 C     6.0000    0    12.011    4.831519    3.391131   -0.074472
   8 N     7.0000    0    14.007   -1.152780    2.936262    0.008918
   9 O     8.0000    0    15.999    3.660282    1.068767   -0.609860
  10 O     8.0000    0    15.999    1.574189   -3.337927   -0.681634
  11 H     1.0000    0     1.008    3.365358   -5.082477   -3.698905
  12 H     1.0000    0     1.008    4.498136   -5.907458   -0.625972
  13 H     1.0000    0     1.008    5.253042   -2.866270   -1.938821
  14 H     1.0000    0     1.008    6.558124    3.576936   -1.236461
  15 H     1.0000    0     1.008    5.394029    3.521731    1.938965
  16 H     1.0000    0     1.008    3.586581    5.021770   -0.491255
  17 C     6.0000    0    12.011   -0.254087   -0.537194    3.944059
  18 C     6.0000    0    12.011   -3.522763   -2.566314    1.671931
  19 H     1.0000    0     1.008    0.565924   -2.206903    4.872096
  20 H     1.0000    0     1.008   -1.249443    0.754343    5.220884
  21 H     1.0000    0     1.008   -2.740054   -4.353377    2.332015
  22 H     1.0000    0     1.008   -4.851587   -1.622477    2.940193
  23 C     6.0000    0    12.011   -5.537499   -0.329135   -2.088497
  24 H     1.0000    0     1.008   -4.832323    0.651345   -3.782500
  25 H     1.0000    0     1.008   -7.180623   -1.472879   -2.685545
  26 H     1.0000    0     1.008   -6.223768    1.100837   -0.743027
  27 H     1.0000    0     1.008   -2.730378   -3.454308   -2.156049
* core charge reduced due to ECP

--------------------------------
INTERNAL COORDINATES (ANGSTROEM)
--------------------------------
 Mo     0   0   0     0.000000000000     0.00000000     0.00000000
 C      1   0   0     2.381233321548     0.00000000     0.00000000
 C      1   2   0     3.153096857911    90.35416580     0.00000000
 H      3   1   2     1.105270077208   117.22287164   125.98189637
 H      3   1   2     1.105573673301   111.79438695     0.93323316
 H      3   1   2     1.105503114583   103.83186971   245.09209323
 C      1   2   3     3.143506672699    94.57678127   216.68676685
 C      1   2   3     3.026176437282   157.24926990   308.16077783
 N      3   1   2     1.427138911829     8.33579235    87.31623396
 O      8   1   2     1.405243022346    30.64532601   277.48267478
 O      7   1   2     1.404082125656    24.66757243   327.13618320
 H      7   1   2     1.107376178639   118.37357679    44.97133975
 H      7   1   2     1.106492545753   123.32566127   264.80956309
 H      7   1   2     1.104373893053    86.39702684   154.60695032
 H      8   1   2     1.105702628097   138.92033387   295.55831576
 H      8   1   2     1.108421237362   100.32403884   162.39971618
 H      8   1   2     1.107809836643    90.42894388    54.40925173
 C      1   2   3     1.937840179439    95.38999786   106.23184163
 C      2   1   3     1.399863220629    78.61953806   245.90319180
 H     18   1   2     1.100077666877   119.40723354    94.01901505
 H     18   1   2     1.095931790575   125.99730880   271.02019269
 H     19   2   1     1.089891565429   119.77641259   265.45198793
 H     19   2   1     1.092861297038   119.91738675   108.56187226
 C      2   1   3     1.511958434183   116.32713961     6.30003436
 H     24   2   1     1.100925533747   112.24433834    58.40885355
 H     24   2   1     1.105521101653   109.71783228   177.19901419
 H     24   2   1     1.100647469315   111.78755294   296.43929625
 H      2   1   3     1.093002779016    97.74258943   130.73038408

---------------------------
INTERNAL COORDINATES (A.U.)
---------------------------
 Mo     0   0   0     0.000000000000     0.00000000     0.00000000
 C      1   0   0     4.499878838694     0.00000000     0.00000000
 C      1   2   0     5.958489535180    90.35416580     0.00000000
 H      3   1   2     2.088657749942   117.22287164   125.98189637
 H      3   1   2     2.089231463412   111.79438695     0.93323316
 H      3   1   2     2.089098126759   103.83186971   245.09209323
 C      1   2   3     5.940366711556    94.57678127   216.68676685
 C      1   2   3     5.718644699389   157.24926990   308.16077783
 N      3   1   2     2.696901698419     8.33579235    87.31623396
 O      8   1   2     2.655524463838    30.64532601   277.48267478
 O      7   1   2     2.653330687023    24.66757243   327.13618320
 H      7   1   2     2.092637704856   118.37357679    44.97133975
 H      7   1   2     2.090967880698   123.32566127   264.80956309
 H      7   1   2     2.086964207322    86.39702684   154.60695032
 H      8   1   2     2.089475152660   138.92033387   295.55831576
 H      8   1   2     2.094612579636   100.32403884   162.39971618
 H      8   1   2     2.093457199718    90.42894388    54.40925173
 C      1   2   3     3.661987230449    95.38999786   106.23184163
 C      2   1   3     2.645358111937    78.61953806   245.90319180
 H     18   1   2     2.078845516440   119.40723354    94.01901505
 H     18   1   2     2.071010945645   125.99730880   271.02019269
 H     19   2   1     2.059596574332   119.77641259   265.45198793
 H     19   2   1     2.065208553763   119.91738675   108.56187226
 C      2   1   3     2.857187366478   116.32713961     6.30003436
 H     24   2   1     2.080447752624   112.24433834    58.40885355
 H     24   2   1     2.089132117396   109.71783228   177.19901419
 H     24   2   1     2.079922286998   111.78755294   296.43929625
 H      2   1   3     2.065475915955    97.74258943   130.73038408

---------------------
BASIS SET INFORMATION
---------------------
There are 5 groups of distinct atoms

 Group   1 Type Mo  : 7s7p5d2f1g contracted to 6s4p3d2f1g pattern {211111/4111/311/11/1}
 Group   2 Type C   : 12s6p3d1f contracted to 6s3p3d1f pattern {621111/411/111/1}
 Group   3 Type H   : 5s3p1d contracted to 3s3p1d pattern {311/111/1}
 Group   4 Type N   : 12s6p3d1f contracted to 6s3p3d1f pattern {621111/411/111/1}
 Group   5 Type O   : 12s7p3d1f contracted to 6s4p3d1f pattern {621111/4111/111/1}

Atom   0Mo   basis set group =>   1
Atom   1C    basis set group =>   2
Atom   2C    basis set group =>   2
Atom   3H    basis set group =>   3
Atom   4H    basis set group =>   3
Atom   5H    basis set group =>   3
Atom   6C    basis set group =>   2
Atom   7C    basis set group =>   2
Atom   8N    basis set group =>   4
Atom   9O    basis set group =>   5
Atom  10O    basis set group =>   5
Atom  11H    basis set group =>   3
Atom  12H    basis set group =>   3
Atom  13H    basis set group =>   3
Atom  14H    basis set group =>   3
Atom  15H    basis set group =>   3
Atom  16H    basis set group =>   3
Atom  17C    basis set group =>   2
Atom  18C    basis set group =>   2
Atom  19H    basis set group =>   3
Atom  20H    basis set group =>   3
Atom  21H    basis set group =>   3
Atom  22H    basis set group =>   3
Atom  23C    basis set group =>   2
Atom  24H    basis set group =>   3
Atom  25H    basis set group =>   3
Atom  26H    basis set group =>   3
Atom  27H    basis set group =>   3
----------------------------------
AUXILIARY/JK BASIS SET INFORMATION
----------------------------------
There are 5 groups of distinct atoms

 Group   1 Type Mo  : 13s12p10d9f6g3h2i contracted to 11s10p9d8f6g3h2i pattern {31111111111/3111111111/211111111/21111111/111111/111/11}
 Group   2 Type C   : 14s10p6d2f1g contracted to 10s8p5d1f1g pattern {5111111111/31111111/21111/2/1}
 Group   3 Type H   : 4s2p2d contracted to 2s2p2d pattern {31/11/11}
 Group   4 Type N   : 14s10p6d2f1g contracted to 10s8p4d2f1g pattern {5111111111/31111111/3111/11/1}
 Group   5 Type O   : 14s10p6d2f1g contracted to 10s8p4d2f1g pattern {5111111111/31111111/3111/11/1}

Atom   0Mo   basis set group =>   1
Atom   1C    basis set group =>   2
Atom   2C    basis set group =>   2
Atom   3H    basis set group =>   3
Atom   4H    basis set group =>   3
Atom   5H    basis set group =>   3
Atom   6C    basis set group =>   2
Atom   7C    basis set group =>   2
Atom   8N    basis set group =>   4
Atom   9O    basis set group =>   5
Atom  10O    basis set group =>   5
Atom  11H    basis set group =>   3
Atom  12H    basis set group =>   3
Atom  13H    basis set group =>   3
Atom  14H    basis set group =>   3
Atom  15H    basis set group =>   3
Atom  16H    basis set group =>   3
Atom  17C    basis set group =>   2
Atom  18C    basis set group =>   2
Atom  19H    basis set group =>   3
Atom  20H    basis set group =>   3
Atom  21H    basis set group =>   3
Atom  22H    basis set group =>   3
Atom  23C    basis set group =>   2
Atom  24H    basis set group =>   3
Atom  25H    basis set group =>   3
Atom  26H    basis set group =>   3
Atom  27H    basis set group =>   3
-------------------------
ECP PARAMETER INFORMATION
-------------------------

 Group 1, Type Mo ECP Def2-ECP (replacing 28 core electrons, lmax=3)

Atom   0Mo   ECP group =>   1



           ************************************************************
           *        Program running with 24 parallel MPI-processes    *
           *              working on a common directory               *
           ************************************************************
------------------------------------------------------------------------------
                           ORCA GTO INTEGRAL CALCULATION
------------------------------------------------------------------------------

                         BASIS SET STATISTICS AND STARTUP INFO

 # of primitive gaussian shells          ...  397
 # of primitive gaussian functions       ...  925
 # of contracted shells                  ...  267
 # of contracted basis functions         ...  721
 Highest angular momentum                ...    4
 Maximum contraction depth               ...    6
 Integral package used                   ... LIBINT
 Integral threshhold            Thresh   ...  1.000e-10
 Primitive cut-off              TCut     ...  1.000e-11


------------------------------ INTEGRAL EVALUATION ----------------------------


 * One electron integrals 

   ECP integrals                         ... done
 Pre-screening matrix                    ... done
 Shell pair data                         ... done (   0.012 sec)



           ************************************************************
           *        Program running with 24 parallel MPI-processes    *
           *              working on a common directory               *
           ************************************************************
-------------------------------------------------------------------------------
                                 ORCA SCF
-------------------------------------------------------------------------------

------------
SCF SETTINGS
------------
Hamiltonian:
 Density Functional     Method          .... DFT(GTOs)
 Exchange Functional    Exchange        .... WB97M-V
 Correlation Functional Correlation     .... WB97M-V
 Gradients option       PostSCFGGA      .... off
 Hybrid DFT is turned on
   Fraction HF Exchange ScalHFX         ....  0.150000
   Scaling of DF-GGA-X  ScalDFX         ....  0.000000
   Scaling of DF-GGA-C  ScalDFC         ....  1.000000
   Scaling of DF-LDA-C  ScalLDAC        ....  1.000000
   Perturbative correction              ....  0.000000
   Density functional embedding theory  .... OFF
 Long-range corrected/Screened/Range-Separated Hybrid DFT is turned on
   Amount of maximum screened exact exchange              ....  0.850000
   Range separation parameter mu (erf(mu*r12)/r12)        ....  0.300000
   NL short-range parameter             ....  6.000000
   NL long-range parameter              ....  0.010000


General Settings:
 Integral files         IntName         .... TMB09_T1
 Hartree-Fock type      HFTyp           .... RHF
 Total Charge           Charge          ....    0
 Multiplicity           Mult            ....    1
 Number of Electrons    NEL             ....   96
 Basis Dimension        Dim             ....  721
 Nuclear Repulsion      ENuc            ....    772.8237984215 Eh

Convergence Acceleration:
 DIIS                   CNVDIIS         .... on
   Start iteration      DIISMaxIt       ....    12
   Startup error        DIISStart       ....  0.200000
   # of expansion vecs  DIISMaxEq       ....     5
   Bias factor          DIISBfac        ....   1.050
   Max. coefficient     DIISMaxC        ....  10.000
 Newton-Raphson         CNVNR           .... off
 SOSCF                  CNVSOSCF        .... off
 Level Shifting         CNVShift        .... on
   Level shift para.    LevelShift      ....    0.2500
   Turn off err/grad.   ShiftErr        ....    0.0010
 Zerner damping         CNVZerner       .... off
 Static damping         CNVDamp         .... on
   Fraction old density DampFac         ....    0.7000
   Max. Damping (<1)    DampMax         ....    0.9800
   Min. Damping (>=0)   DampMin         ....    0.0000
   Turn off err/grad.   DampErr         ....    0.1000
 Fernandez-Rico         CNVRico         .... off

SCF Procedure:
 Maximum # iterations   MaxIter         ....   125
 SCF integral mode      SCFMode         .... Direct
   Integral package                     .... LIBINT
 Reset frequency        DirectResetFreq ....    20
 Integral Threshold     Thresh          ....  1.000e-10 Eh
 Primitive CutOff       TCut            ....  1.000e-11 Eh

Convergence Tolerance:
 Convergence Check Mode ConvCheckMode   .... Total+1el-Energy
 Convergence forced     ConvForced      .... 0
 Energy Change          TolE            ....  1.000e-06 Eh
 1-El. energy change                    ....  1.000e-03 Eh
 DIIS Error             TolErr          ....  1.000e-06


Diagonalization of the overlap matrix:
Smallest eigenvalue                        ... 2.613e-06
Time for diagonalization                   ...    0.102 sec
Threshold for overlap eigenvalues          ... 1.000e-08
Number of eigenvalues below threshold      ... 0
Time for construction of square roots      ...    0.067 sec
Total time needed                          ...    0.171 sec

-------------------
DFT GRID GENERATION
-------------------

General Integration Accuracy     IntAcc      ...  4.670
Radial Grid Type                 RadialGrid  ... Gauss-Chebyshev
Angular Grid (max. acc.)         AngularGrid ... Lebedev-302
Angular grid pruning method      GridPruning ... 3 (G Style)
Weight generation scheme         WeightScheme... Becke
Basis function cutoff            BFCut       ...    1.0000e-10
Integration weight cutoff        WCut        ...    1.0000e-14
Grids for H and He will be reduced by one unit

# of grid points (after initial pruning)     ... 130416 (   0.0 sec)
# of grid points (after weights+screening)   ... 116069 (   0.1 sec)
nearest neighbour list constructed           ...    0.0 sec
Grid point re-assignment to atoms done       ...    0.0 sec
Grid point division into batches done        ...    0.3 sec
Reduced shell lists constructed in    0.5 sec

Total number of grid points                  ...   116069
Total number of batches                      ...     1829
Average number of points per batch           ...       63
Average number of grid points per atom       ...     4145
Average number of shells per batch           ...   194.05 (72.68%)
Average number of basis functions per batch  ...   535.85 (74.32%)
Average number of large shells per batch     ...   151.29 (77.97%)
Average number of large basis fcns per batch ...   410.37 (76.58%)
Maximum spatial batch extension              ...   2.09,  2.19,  2.23 au
Average spatial batch extension              ...   0.05,  0.05,  0.05 au

Time for grid setup =    0.576 sec

------------------------------
INITIAL GUESS: MODEL POTENTIAL
------------------------------
Loading Hartree-Fock densities                     ... done
  calling /sw/apps/orca/orca_4_2_0_linux_x86-64_openmpi314/orca TMB09_T1_atom42.inp > TMB09_T1_atom42.out in order to generate an atomic fitting density for atom 0 (Mo with ECP) on-the-fly... 
    atom 0 (Mo), assumed electronic state with S=5: 1s2 2s2 2p6 3s2 3p6 4s2 3d10 4p6 5s2 4d4           ... done
Calculating cut-offs                               ... done
Setting up the integral package                    ... done
Initializing the effective Hamiltonian             ... done
Starting the Coulomb interaction                   ... done (   0.1 sec)
Reading the grid                                   ... done
Mapping shells                                     ... done
Starting the XC term evaluation                    ... done (   0.3 sec)
  promolecular density results
     # of electrons  =    123.992171550
     EX              =   -182.819410216
     EC              =     -4.828570886
     EX+EC           =   -187.647981103
Transforming the Hamiltonian                       ... done (   0.0 sec)
Diagonalizing the Hamiltonian                      ... done (   0.1 sec)
Back transforming the eigenvectors                 ... done (   0.0 sec)
Now organizing SCF variables                       ... done
                      ------------------
                      INITIAL GUESS DONE (   3.0 sec)
                      ------------------
--------------
SCF ITERATIONS
--------------
ITER       Energy         Delta-E        Max-DP      RMS-DP      [F,P]     Damp
               ***  Starting incremental Fock matrix formation  ***
  0   -550.0523194211   0.000000000000 0.38700949  0.00148391  0.3803792 0.7000
  1   -550.2969316886  -0.244612267515 0.13872317  0.00110483  0.2852702 0.7000
  2   -550.4013929816  -0.104461293081 0.06713828  0.00079603  0.2071015 0.7000
                               ***Turning on DIIS***
  3   -550.4666333194  -0.065240337778 0.08502514  0.00057822  0.1452600 0.7000
  4   -550.5113383631  -0.044705043652 0.04972287  0.00040357  0.1005678 0.7000
  5   -550.5424118120  -0.031073448925 0.12137849  0.00096424  0.0708901 0.0000
  6   -550.6151876505  -0.072775838495 0.01973848  0.00007791  0.0028487 0.0000
  7   -550.6153003973  -0.000112746849 0.00556010  0.00003150  0.0023542 0.0000
  8   -550.6153399181  -0.000039520777 0.00454261  0.00002316  0.0018313 0.0000
  9   -550.6153623685  -0.000022450428 0.00216088  0.00001659  0.0011088 0.0000
 10   -550.6153750946  -0.000012726045 0.00450108  0.00002128  0.0006137 0.0000
 11   -550.6153810749  -0.000005980263 0.00257865  0.00000927  0.0004014 0.0000
                 **** Energy Check signals convergence ****

               *****************************************************
               *                     SUCCESS                       *
               *           SCF CONVERGED AFTER  12 CYCLES          *
               *****************************************************


Setting up the DFT-NL grid :

General Integration Accuracy     IntAcc      ...  4.340
Radial Grid Type                 RadialGrid  ... Gauss-Chebyshev
Angular Grid (max. acc.)         AngularGrid ... Lebedev-110
Angular grid pruning method      GridPruning ... 3 (G Style)
Weight generation scheme         WeightScheme... Becke
Basis function cutoff            BFCut       ...    1.0000e-10
Integration weight cutoff        WCut        ...    1.0000e-14
Grids for H and He will be reduced by one unit

# of grid points (after initial pruning)     ...  33504 (   0.0 sec)
# of grid points (after weights+screening)   ...  30308 (   0.0 sec)
nearest neighbour list constructed           ...    0.0 sec
Grid point re-assignment to atoms done       ...    0.0 sec
Grid point division into batches done        ...    0.0 sec
Reduced shell lists constructed in    0.1 sec

Total number of grid points                  ...    30308
Total number of batches                      ...      491
Average number of points per batch           ...       61
Average number of grid points per atom       ...     1082
Average number of shells per batch           ...   193.95 (72.64%)
Average number of basis functions per batch  ...   538.95 (74.75%)
Average number of large shells per batch     ...   155.45 (80.15%)
Average number of large basis fcns per batch ...   423.27 (78.54%)
Maximum spatial batch extension              ...   2.83,  2.63,  2.88 au
Average spatial batch extension              ...   0.08,  0.07,  0.07 au

Final grid set up in    0.1 sec

-------------------------------------------------------------------------------
                         DFT-NL dispersion correction                          
-------------------------------------------------------------------------------

SC Energy -550.615381813 
NL    Energy 0.354468039 
SC+NL Energy -550.260913774 
NL done in    0.3 sec
-------------------------------------------------------------------------------

----------------
TOTAL SCF ENERGY
----------------

Total Energy       :         -550.26091377 Eh          -14973.36069 eV

Components:
Nuclear Repulsion  :          772.82379842 Eh           21029.60468 eV
Electronic Energy  :        -1323.08471220 Eh          -36002.96537 eV
One Electron Energy:        -2306.92430275 Eh          -62774.60168 eV
Two Electron Energy:          983.83959056 Eh           26771.63630 eV

Virial components:
Potential Energy   :        -1053.50479153 Eh          -28667.32280 eV
Kinetic Energy     :          503.24387775 Eh           13693.96210 eV
Virial Ratio       :            2.09342793


DFT components:
N(Alpha)           :       47.999972480799 electrons
N(Beta)            :       47.999972480799 electrons
N(Total)           :       95.999944961599 electrons
E(X)               :      -49.695964370762 Eh       
E(C)               :       -2.981107914091 Eh       
NL Energy, E(C,NL) :        0.354468039043 Eh       
E(XC)              :      -52.322604245810 Eh       
DFET-embed. en.    :        0.000000000000 Eh       

---------------
SCF CONVERGENCE
---------------

  Last Energy change         ...   -7.3801e-07  Tolerance :   1.0000e-06
  Last MAX-Density change    ...    1.4190e-03  Tolerance :   1.0000e-05
  Last RMS-Density change    ...    7.7428e-06  Tolerance :   1.0000e-06
  Last DIIS Error            ...    1.3592e-04  Tolerance :   1.0000e-06

             **** THE GBW FILE WAS UPDATED (TMB09_T1.gbw) ****
             **** DENSITY FILE WAS UPDATED (TMB09_T1.scfp) ****
             **** ENERGY FILE WAS UPDATED (TMB09_T1.en.tmp) ****
             **** THE GBW FILE WAS UPDATED (TMB09_T1.gbw) ****
             **** DENSITY FILE WAS UPDATED (TMB09_T1.scfp) ****
----------------
ORBITAL ENERGIES
----------------

  NO   OCC          E(Eh)            E(eV) 
   0   2.0000     -19.292130      -524.9656 
   1   2.0000     -19.291091      -524.9373 
   2   2.0000     -14.504361      -394.6837 
   3   2.0000     -10.385753      -282.6107 
   4   2.0000     -10.379253      -282.4338 
   5   2.0000     -10.367343      -282.1098 
   6   2.0000     -10.366448      -282.0854 
   7   2.0000     -10.365698      -282.0650 
   8   2.0000     -10.359853      -281.9059 
   9   2.0000     -10.350603      -281.6542 
  10   2.0000      -2.749674       -74.8224 
  11   2.0000      -1.752649       -47.6920 
  12   2.0000      -1.741026       -47.3757 
  13   2.0000      -1.733330       -47.1663 
  14   2.0000      -1.082782       -29.4640 
  15   2.0000      -1.074638       -29.2424 
  16   2.0000      -0.964839       -26.2546 
  17   2.0000      -0.927599       -25.2413 
  18   2.0000      -0.824545       -22.4370 
  19   2.0000      -0.773886       -21.0585 
  20   2.0000      -0.764150       -20.7936 
  21   2.0000      -0.757513       -20.6130 
  22   2.0000      -0.738831       -20.1046 
  23   2.0000      -0.687720       -18.7138 
  24   2.0000      -0.596098       -16.2206 
  25   2.0000      -0.564107       -15.3501 
  26   2.0000      -0.556017       -15.1300 
  27   2.0000      -0.553302       -15.0561 
  28   2.0000      -0.547795       -14.9062 
  29   2.0000      -0.543223       -14.7818 
  30   2.0000      -0.535711       -14.5774 
  31   2.0000      -0.530434       -14.4338 
  32   2.0000      -0.522405       -14.2154 
  33   2.0000      -0.517213       -14.0741 
  34   2.0000      -0.515131       -14.0174 
  35   2.0000      -0.497018       -13.5245 
  36   2.0000      -0.492030       -13.3888 
  37   2.0000      -0.483441       -13.1551 
  38   2.0000      -0.459379       -12.5003 
  39   2.0000      -0.448709       -12.2100 
  40   2.0000      -0.416293       -11.3279 
  41   2.0000      -0.394523       -10.7355 
  42   2.0000      -0.385487       -10.4896 
  43   2.0000      -0.365579        -9.9479 
  44   2.0000      -0.361739        -9.8434 
  45   2.0000      -0.345086        -9.3903 
  46   2.0000      -0.334142        -9.0925 
  47   2.0000      -0.307511        -8.3678 
  48   0.0000       0.019518         0.5311 
  49   0.0000       0.029710         0.8084 
  50   0.0000       0.032790         0.8923 
  51   0.0000       0.041394         1.1264 
  52   0.0000       0.048051         1.3075 
  53   0.0000       0.050177         1.3654 
  54   0.0000       0.052019         1.4155 
  55   0.0000       0.062627         1.7042 
  56   0.0000       0.064772         1.7625 
  57   0.0000       0.069835         1.9003 
  58   0.0000       0.073467         1.9991 
  59   0.0000       0.076027         2.0688 
  60   0.0000       0.084096         2.2884 
  61   0.0000       0.088659         2.4125 
  62   0.0000       0.098227         2.6729 
  63   0.0000       0.107336         2.9208 
  64   0.0000       0.114782         3.1234 
  65   0.0000       0.119393         3.2488 
  66   0.0000       0.125724         3.4211 
  67   0.0000       0.129440         3.5222 
  68   0.0000       0.131030         3.5655 
  69   0.0000       0.133567         3.6345 
  70   0.0000       0.145547         3.9605 
  71   0.0000       0.150886         4.1058 
  72   0.0000       0.159966         4.3529 
  73   0.0000       0.160836         4.3766 
  74   0.0000       0.161951         4.4069 
  75   0.0000       0.166265         4.5243 
  76   0.0000       0.173772         4.7286 
  77   0.0000       0.177169         4.8210 
  78   0.0000       0.184354         5.0165 
  79   0.0000       0.191658         5.2153 
  80   0.0000       0.196516         5.3475 
  81   0.0000       0.199972         5.4415 
  82   0.0000       0.206152         5.6097 
  83   0.0000       0.210045         5.7156 
  84   0.0000       0.213318         5.8047 
  85   0.0000       0.218544         5.9469 
  86   0.0000       0.221482         6.0268 
  87   0.0000       0.226679         6.1683 
  88   0.0000       0.229106         6.2343 
  89   0.0000       0.233421         6.3517 
  90   0.0000       0.240205         6.5363 
  91   0.0000       0.246093         6.6965 
  92   0.0000       0.252170         6.8619 
  93   0.0000       0.256956         6.9921 
  94   0.0000       0.259175         7.0525 
  95   0.0000       0.264530         7.1982 
  96   0.0000       0.274812         7.4780 
  97   0.0000       0.280379         7.6295 
  98   0.0000       0.280709         7.6385 
  99   0.0000       0.284349         7.7375 
 100   0.0000       0.286129         7.7860 
 101   0.0000       0.291467         7.9312 
 102   0.0000       0.293357         7.9827 
 103   0.0000       0.295779         8.0485 
 104   0.0000       0.303018         8.2455 
 105   0.0000       0.306553         8.3417 
 106   0.0000       0.310847         8.4586 
 107   0.0000       0.314230         8.5506 
 108   0.0000       0.317050         8.6274 
 109   0.0000       0.318459         8.6657 
 110   0.0000       0.325815         8.8659 
 111   0.0000       0.328048         8.9266 
 112   0.0000       0.330921         9.0048 
 113   0.0000       0.333641         9.0788 
 114   0.0000       0.338294         9.2055 
 115   0.0000       0.339862         9.2481 
 116   0.0000       0.343547         9.3484 
 117   0.0000       0.345692         9.4068 
 118   0.0000       0.346176         9.4199 
 119   0.0000       0.349912         9.5216 
 120   0.0000       0.354326         9.6417 
 121   0.0000       0.361108         9.8263 
 122   0.0000       0.362399         9.8614 
 123   0.0000       0.368380        10.0241 
 124   0.0000       0.371506        10.1092 
 125   0.0000       0.372309        10.1311 
 126   0.0000       0.376552        10.2465 
 127   0.0000       0.378983        10.3126 
 128   0.0000       0.386710        10.5229 
 129   0.0000       0.389995        10.6123 
 130   0.0000       0.391551        10.6547 
 131   0.0000       0.394336        10.7304 
 132   0.0000       0.397065        10.8047 
 133   0.0000       0.398637        10.8475 
 134   0.0000       0.405551        11.0356 
 135   0.0000       0.409233        11.1358 
 136   0.0000       0.412382        11.2215 
 137   0.0000       0.416466        11.3326 
 138   0.0000       0.420088        11.4312 
 139   0.0000       0.421921        11.4811 
 140   0.0000       0.424009        11.5379 
 141   0.0000       0.426126        11.5955 
 142   0.0000       0.432203        11.7608 
 143   0.0000       0.438572        11.9341 
 144   0.0000       0.439378        11.9561 
 145   0.0000       0.447408        12.1746 
 146   0.0000       0.449176        12.2227 
 147   0.0000       0.454204        12.3595 
 148   0.0000       0.458253        12.4697 
 149   0.0000       0.460869        12.5409 
 150   0.0000       0.464574        12.6417 
 151   0.0000       0.470664        12.8074 
 152   0.0000       0.471228        12.8228 
 153   0.0000       0.475481        12.9385 
 154   0.0000       0.478229        13.0133 
 155   0.0000       0.486169        13.2293 
 156   0.0000       0.488782        13.3004 
 157   0.0000       0.490033        13.3345 
 158   0.0000       0.493149        13.4193 
 159   0.0000       0.497551        13.5391 
 160   0.0000       0.502101        13.6629 
 161   0.0000       0.503757        13.7079 
 162   0.0000       0.508459        13.8359 
 163   0.0000       0.516065        14.0428 
 164   0.0000       0.520185        14.1550 
 165   0.0000       0.527517        14.3545 
 166   0.0000       0.532032        14.4773 
 167   0.0000       0.533320        14.5124 
 168   0.0000       0.537566        14.6279 
 169   0.0000       0.540187        14.6992 
 170   0.0000       0.546566        14.8728 
 171   0.0000       0.549492        14.9524 
 172   0.0000       0.559366        15.2211 
 173   0.0000       0.564393        15.3579 
 174   0.0000       0.568358        15.4658 
 175   0.0000       0.570170        15.5151 
 176   0.0000       0.575551        15.6615 
 177   0.0000       0.576450        15.6860 
 178   0.0000       0.583551        15.8792 
 179   0.0000       0.588230        16.0066 
 180   0.0000       0.596048        16.2193 
 181   0.0000       0.598596        16.2886 
 182   0.0000       0.606807        16.5121 
 183   0.0000       0.612904        16.6780 
 184   0.0000       0.617485        16.8026 
 185   0.0000       0.621350        16.9078 
 186   0.0000       0.626954        17.0603 
 187   0.0000       0.634887        17.2762 
 188   0.0000       0.645031        17.5522 
 189   0.0000       0.649046        17.6614 
 190   0.0000       0.651730        17.7345 
 191   0.0000       0.657612        17.8945 
 192   0.0000       0.665753        18.1161 
 193   0.0000       0.667887        18.1741 
 194   0.0000       0.673727        18.3330 
 195   0.0000       0.681247        18.5377 
 196   0.0000       0.689405        18.7597 
 197   0.0000       0.694850        18.9078 
 198   0.0000       0.701875        19.0990 
 199   0.0000       0.707990        19.2654 
 200   0.0000       0.715489        19.4694 
 201   0.0000       0.717119        19.5138 
 202   0.0000       0.718420        19.5492 
 203   0.0000       0.727179        19.7875 
 204   0.0000       0.734688        19.9919 
 205   0.0000       0.735765        20.0212 
 206   0.0000       0.740139        20.1402 
 207   0.0000       0.744289        20.2531 
 208   0.0000       0.749268        20.3886 
 209   0.0000       0.750224        20.4146 
 210   0.0000       0.753229        20.4964 
 211   0.0000       0.756989        20.5987 
 212   0.0000       0.764297        20.7976 
 213   0.0000       0.766753        20.8644 
 214   0.0000       0.769526        20.9399 
 215   0.0000       0.775538        21.1035 
 216   0.0000       0.781600        21.2684 
 217   0.0000       0.787409        21.4265 
 218   0.0000       0.796537        21.6749 
 219   0.0000       0.800570        21.7846 
 220   0.0000       0.803513        21.8647 
 221   0.0000       0.804007        21.8781 
 222   0.0000       0.812314        22.1042 
 223   0.0000       0.813675        22.1412 
 224   0.0000       0.818228        22.2651 
 225   0.0000       0.821796        22.3622 
 226   0.0000       0.825583        22.4653 
 227   0.0000       0.830652        22.6032 
 228   0.0000       0.833136        22.6708 
 229   0.0000       0.839548        22.8453 
 230   0.0000       0.846107        23.0238 
 231   0.0000       0.847866        23.0716 
 232   0.0000       0.854394        23.2492 
 233   0.0000       0.861068        23.4309 
 234   0.0000       0.867562        23.6076 
 235   0.0000       0.874474        23.7956 
 236   0.0000       0.879039        23.9199 
 237   0.0000       0.888485        24.1769 
 238   0.0000       0.894908        24.3517 
 239   0.0000       0.901306        24.5258 
 240   0.0000       0.911313        24.7981 
 241   0.0000       0.921537        25.0763 
 242   0.0000       0.928943        25.2778 
 243   0.0000       0.942409        25.6442 
 244   0.0000       0.944521        25.7017 
 245   0.0000       0.947358        25.7789 
 246   0.0000       0.956857        26.0374 
 247   0.0000       0.970009        26.3953 
 248   0.0000       0.988205        26.8904 
 249   0.0000       0.993871        27.0446 
 250   0.0000       0.998731        27.1769 
 251   0.0000       1.018803        27.7230 
 252   0.0000       1.023939        27.8628 
 253   0.0000       1.028447        27.9855 
 254   0.0000       1.047279        28.4979 
 255   0.0000       1.051744        28.6194 
 256   0.0000       1.061740        28.8914 
 257   0.0000       1.068002        29.0618 
 258   0.0000       1.079510        29.3750 
 259   0.0000       1.092986        29.7417 
 260   0.0000       1.100572        29.9481 
 261   0.0000       1.109148        30.1815 
 262   0.0000       1.115585        30.3566 
 263   0.0000       1.126153        30.6442 
 264   0.0000       1.133301        30.8387 
 265   0.0000       1.142454        31.0878 
 266   0.0000       1.148053        31.2401 
 267   0.0000       1.149490        31.2792 
 268   0.0000       1.158504        31.5245 
 269   0.0000       1.162287        31.6274 
 270   0.0000       1.172725        31.9115 
 271   0.0000       1.178292        32.0629 
 272   0.0000       1.188570        32.3426 
 273   0.0000       1.198101        32.6020 
 274   0.0000       1.202368        32.7181 
 275   0.0000       1.212579        32.9959 
 276   0.0000       1.222626        33.2693 
 277   0.0000       1.226114        33.3643 
 278   0.0000       1.229276        33.4503 
 279   0.0000       1.241143        33.7732 
 280   0.0000       1.247996        33.9597 
 281   0.0000       1.255935        34.1757 
 282   0.0000       1.262923        34.3659 
 283   0.0000       1.274496        34.6808 
 284   0.0000       1.276801        34.7435 
 285   0.0000       1.283104        34.9150 
 286   0.0000       1.291772        35.1509 
 287   0.0000       1.299033        35.3485 
 288   0.0000       1.302772        35.4502 
 289   0.0000       1.308243        35.5991 
 290   0.0000       1.313875        35.7524 
 291   0.0000       1.324165        36.0324 
 292   0.0000       1.337333        36.3907 
 293   0.0000       1.343602        36.5613 
 294   0.0000       1.345655        36.6171 
 295   0.0000       1.360662        37.0255 
 296   0.0000       1.367671        37.2162 
 297   0.0000       1.376176        37.4476 
 298   0.0000       1.380754        37.5722 
 299   0.0000       1.383930        37.6586 
 300   0.0000       1.388539        37.7841 
 301   0.0000       1.395136        37.9636 
 302   0.0000       1.400253        38.1028 
 303   0.0000       1.412046        38.4237 
 304   0.0000       1.421310        38.6758 
 305   0.0000       1.430709        38.9316 
 306   0.0000       1.431682        38.9580 
 307   0.0000       1.439001        39.1572 
 308   0.0000       1.442756        39.2594 
 309   0.0000       1.451228        39.4899 
 310   0.0000       1.457037        39.6480 
 311   0.0000       1.466415        39.9032 
 312   0.0000       1.471509        40.0418 
 313   0.0000       1.483573        40.3701 
 314   0.0000       1.486926        40.4613 
 315   0.0000       1.494158        40.6581 
 316   0.0000       1.497794        40.7570 
 317   0.0000       1.508767        41.0556 
 318   0.0000       1.512373        41.1538 
 319   0.0000       1.526823        41.5470 
 320   0.0000       1.528307        41.5873 
 321   0.0000       1.533406        41.7261 
 322   0.0000       1.541905        41.9574 
 323   0.0000       1.543945        42.0129 
 324   0.0000       1.556186        42.3460 
 325   0.0000       1.563937        42.5569 
 326   0.0000       1.573757        42.8241 
 327   0.0000       1.577494        42.9258 
 328   0.0000       1.587410        43.1956 
 329   0.0000       1.595751        43.4226 
 330   0.0000       1.605410        43.6854 
 331   0.0000       1.616460        43.9861 
 332   0.0000       1.622490        44.1502 
 333   0.0000       1.630036        44.3555 
 334   0.0000       1.655335        45.0440 
 335   0.0000       1.658179        45.1214 
 336   0.0000       1.663097        45.2552 
 337   0.0000       1.671801        45.4920 
 338   0.0000       1.680583        45.7310 
 339   0.0000       1.684643        45.8415 
 340   0.0000       1.688611        45.9494 
 341   0.0000       1.702344        46.3231 
 342   0.0000       1.711648        46.5763 
 343   0.0000       1.715360        46.6773 
 344   0.0000       1.727833        47.0167 
 345   0.0000       1.737036        47.2671 
 346   0.0000       1.741527        47.3894 
 347   0.0000       1.748456        47.5779 
 348   0.0000       1.754225        47.7349 
 349   0.0000       1.757563        47.8257 
 350   0.0000       1.768649        48.1274 
 351   0.0000       1.773043        48.2470 
 352   0.0000       1.789530        48.6956 
 353   0.0000       1.792622        48.7797 
 354   0.0000       1.813158        49.3385 
 355   0.0000       1.828676        49.7608 
 356   0.0000       1.839753        50.0622 
 357   0.0000       1.863282        50.7025 
 358   0.0000       1.877237        51.0822 
 359   0.0000       1.897540        51.6347 
 360   0.0000       1.906619        51.8817 
 361   0.0000       1.911563        52.0163 
 362   0.0000       1.931024        52.5458 
 363   0.0000       1.956840        53.2483 
 364   0.0000       1.962303        53.3970 
 365   0.0000       1.983330        53.9691 
 366   0.0000       1.988050        54.0976 
 367   0.0000       1.999782        54.4168 
 368   0.0000       2.022395        55.0322 
 369   0.0000       2.032646        55.3111 
 370   0.0000       2.035410        55.3863 
 371   0.0000       2.042353        55.5752 
 372   0.0000       2.059425        56.0398 
 373   0.0000       2.065764        56.2123 
 374   0.0000       2.069943        56.3260 
 375   0.0000       2.093518        56.9675 
 376   0.0000       2.098786        57.1109 
 377   0.0000       2.110714        57.4355 
 378   0.0000       2.123512        57.7837 
 379   0.0000       2.151984        58.5585 
 380   0.0000       2.163041        58.8593 
 381   0.0000       2.170261        59.0558 
 382   0.0000       2.210665        60.1552 
 383   0.0000       2.218299        60.3630 
 384   0.0000       2.226563        60.5878 
 385   0.0000       2.243717        61.0546 
 386   0.0000       2.277096        61.9629 
 387   0.0000       2.301296        62.6215 
 388   0.0000       2.340109        63.6776 
 389   0.0000       2.346736        63.8579 
 390   0.0000       2.356384        64.1205 
 391   0.0000       2.361355        64.2557 
 392   0.0000       2.380444        64.7752 
 393   0.0000       2.405339        65.4526 
 394   0.0000       2.417707        65.7891 
 395   0.0000       2.430676        66.1420 
 396   0.0000       2.447161        66.5906 
 397   0.0000       2.468009        67.1579 
 398   0.0000       2.497787        67.9682 
 399   0.0000       2.506587        68.2077 
 400   0.0000       2.549252        69.3687 
 401   0.0000       2.577821        70.1461 
 402   0.0000       2.599057        70.7239 
 403   0.0000       2.606140        70.9167 
 404   0.0000       2.636754        71.7497 
 405   0.0000       2.652714        72.1840 
 406   0.0000       2.672919        72.7338 
 407   0.0000       2.685657        73.0804 
 408   0.0000       2.689464        73.1840 
 409   0.0000       2.704205        73.5852 
 410   0.0000       2.717965        73.9596 
 411   0.0000       2.731027        74.3150 
 412   0.0000       2.763533        75.1995 
 413   0.0000       2.783289        75.7371 
 414   0.0000       2.787494        75.8516 
 415   0.0000       2.807496        76.3958 
 416   0.0000       2.817372        76.6646 
 417   0.0000       2.818420        76.6931 
 418   0.0000       2.829022        76.9816 
 419   0.0000       2.842084        77.3370 
 420   0.0000       2.848865        77.5216 
 421   0.0000       2.861359        77.8615 
 422   0.0000       2.865314        77.9692 
 423   0.0000       2.878610        78.3310 
 424   0.0000       2.885031        78.5057 
 425   0.0000       2.891451        78.6804 
 426   0.0000       2.893832        78.7452 
 427   0.0000       2.900037        78.9140 
 428   0.0000       2.914915        79.3189 
 429   0.0000       2.917798        79.3973 
 430   0.0000       2.920841        79.4801 
 431   0.0000       2.930227        79.7355 
 432   0.0000       2.934084        79.8405 
 433   0.0000       2.940840        80.0243 
 434   0.0000       2.946514        80.1787 
 435   0.0000       2.953929        80.3805 
 436   0.0000       2.955245        80.4163 
 437   0.0000       2.959129        80.5220 
 438   0.0000       2.966231        80.7153 
 439   0.0000       2.972363        80.8821 
 440   0.0000       2.981591        81.1332 
 441   0.0000       2.991826        81.4117 
 442   0.0000       2.998481        81.5928 
 443   0.0000       3.011461        81.9460 
 444   0.0000       3.028312        82.4046 
 445   0.0000       3.037004        82.6411 
 446   0.0000       3.049839        82.9903 
 447   0.0000       3.052994        83.0762 
 448   0.0000       3.060439        83.2788 
 449   0.0000       3.075339        83.6842 
 450   0.0000       3.080783        83.8324 
 451   0.0000       3.092168        84.1422 
 452   0.0000       3.094220        84.1980 
 453   0.0000       3.117361        84.8277 
 454   0.0000       3.127795        85.1116 
 455   0.0000       3.134782        85.3017 
 456   0.0000       3.142262        85.5053 
 457   0.0000       3.142957        85.5242 
 458   0.0000       3.154665        85.8428 
 459   0.0000       3.161107        86.0181 
 460   0.0000       3.164682        86.1154 
 461   0.0000       3.169046        86.2341 
 462   0.0000       3.181139        86.5632 
 463   0.0000       3.182353        86.5962 
 464   0.0000       3.191628        86.8486 
 465   0.0000       3.205189        87.2176 
 466   0.0000       3.218389        87.5768 
 467   0.0000       3.221950        87.6737 
 468   0.0000       3.247530        88.3698 
 469   0.0000       3.252148        88.4954 
 470   0.0000       3.263118        88.7940 
 471   0.0000       3.290544        89.5403 
 472   0.0000       3.293021        89.6077 
 473   0.0000       3.300745        89.8178 
 474   0.0000       3.313895        90.1757 
 475   0.0000       3.318467        90.3001 
 476   0.0000       3.333892        90.7198 
 477   0.0000       3.345498        91.0356 
 478   0.0000       3.350243        91.1647 
 479   0.0000       3.353674        91.2581 
 480   0.0000       3.369018        91.6756 
 481   0.0000       3.385343        92.1199 
 482   0.0000       3.391481        92.2869 
 483   0.0000       3.405552        92.6698 
 484   0.0000       3.408454        92.7487 
 485   0.0000       3.428980        93.3073 
 486   0.0000       3.436869        93.5220 
 487   0.0000       3.439128        93.5834 
 488   0.0000       3.448655        93.8427 
 489   0.0000       3.458937        94.1225 
 490   0.0000       3.459254        94.1311 
 491   0.0000       3.473355        94.5148 
 492   0.0000       3.476407        94.5978 
 493   0.0000       3.489679        94.9590 
 494   0.0000       3.491891        95.0192 
 495   0.0000       3.501796        95.2887 
 496   0.0000       3.507089        95.4327 
 497   0.0000       3.526496        95.9608 
 498   0.0000       3.536674        96.2378 
 499   0.0000       3.536861        96.2429 
 500   0.0000       3.558802        96.8399 
 501   0.0000       3.565178        97.0134 
 502   0.0000       3.571831        97.1945 
 503   0.0000       3.580159        97.4211 
 504   0.0000       3.584490        97.5389 
 505   0.0000       3.588922        97.6595 
 506   0.0000       3.598595        97.9228 
 507   0.0000       3.607307        98.1598 
 508   0.0000       3.611562        98.2756 
 509   0.0000       3.614659        98.3599 
 510   0.0000       3.634170        98.8908 
 511   0.0000       3.636151        98.9447 
 512   0.0000       3.640227        99.0556 
 513   0.0000       3.664135        99.7062 
 514   0.0000       3.665739        99.7498 
 515   0.0000       3.669472        99.8514 
 516   0.0000       3.683061       100.2212 
 517   0.0000       3.698513       100.6417 
 518   0.0000       3.708953       100.9257 
 519   0.0000       3.731484       101.5388 
 520   0.0000       3.740520       101.7847 
 521   0.0000       3.751545       102.0847 
 522   0.0000       3.757601       102.2495 
 523   0.0000       3.778124       102.8080 
 524   0.0000       3.787846       103.0725 
 525   0.0000       3.797927       103.3468 
 526   0.0000       3.804070       103.5140 
 527   0.0000       3.812841       103.7527 
 528   0.0000       3.817755       103.8864 
 529   0.0000       3.832675       104.2924 
 530   0.0000       3.839018       104.4650 
 531   0.0000       3.855339       104.9091 
 532   0.0000       3.858309       104.9899 
 533   0.0000       3.869287       105.2886 
 534   0.0000       3.874701       105.4360 
 535   0.0000       3.899080       106.0994 
 536   0.0000       3.906948       106.3134 
 537   0.0000       3.913618       106.4950 
 538   0.0000       3.926797       106.8536 
 539   0.0000       3.940380       107.2232 
 540   0.0000       3.952602       107.5558 
 541   0.0000       3.962431       107.8232 
 542   0.0000       3.966202       107.9258 
 543   0.0000       3.985398       108.4482 
 544   0.0000       3.996798       108.7584 
 545   0.0000       4.000924       108.8707 
 546   0.0000       4.012156       109.1763 
 547   0.0000       4.031753       109.7096 
 548   0.0000       4.043733       110.0356 
 549   0.0000       4.047245       110.1311 
 550   0.0000       4.062241       110.5392 
 551   0.0000       4.082703       111.0960 
 552   0.0000       4.088317       111.2488 
 553   0.0000       4.094943       111.4291 
 554   0.0000       4.107497       111.7707 
 555   0.0000       4.116149       112.0061 
 556   0.0000       4.119751       112.1041 
 557   0.0000       4.132513       112.4514 
 558   0.0000       4.143782       112.7580 
 559   0.0000       4.162049       113.2551 
 560   0.0000       4.169892       113.4685 
 561   0.0000       4.179685       113.7350 
 562   0.0000       4.188615       113.9780 
 563   0.0000       4.195631       114.1689 
 564   0.0000       4.207613       114.4950 
 565   0.0000       4.210238       114.5664 
 566   0.0000       4.217891       114.7747 
 567   0.0000       4.227685       115.0412 
 568   0.0000       4.233140       115.1896 
 569   0.0000       4.245858       115.5357 
 570   0.0000       4.250017       115.6488 
 571   0.0000       4.259669       115.9115 
 572   0.0000       4.262663       115.9930 
 573   0.0000       4.275713       116.3481 
 574   0.0000       4.287536       116.6698 
 575   0.0000       4.297618       116.9441 
 576   0.0000       4.299280       116.9893 
 577   0.0000       4.304726       117.1375 
 578   0.0000       4.326101       117.7192 
 579   0.0000       4.351001       118.3968 
 580   0.0000       4.362157       118.7003 
 581   0.0000       4.364750       118.7709 
 582   0.0000       4.371236       118.9474 
 583   0.0000       4.375985       119.0766 
 584   0.0000       4.383551       119.2825 
 585   0.0000       4.385400       119.3328 
 586   0.0000       4.394505       119.5806 
 587   0.0000       4.404608       119.8555 
 588   0.0000       4.415310       120.1467 
 589   0.0000       4.434813       120.6774 
 590   0.0000       4.443563       120.9155 
 591   0.0000       4.446944       121.0075 
 592   0.0000       4.463739       121.4645 
 593   0.0000       4.479760       121.9005 
 594   0.0000       4.500097       122.4539 
 595   0.0000       4.500614       122.4679 
 596   0.0000       4.509683       122.7147 
 597   0.0000       4.523058       123.0787 
 598   0.0000       4.527137       123.1897 
 599   0.0000       4.572955       124.4364 
 600   0.0000       4.599459       125.1576 
 601   0.0000       4.641251       126.2949 
 602   0.0000       4.662937       126.8850 
 603   0.0000       4.670639       127.0946 
 604   0.0000       4.680053       127.3507 
 605   0.0000       4.681981       127.4032 
 606   0.0000       4.699451       127.8786 
 607   0.0000       4.710590       128.1817 
 608   0.0000       4.719646       128.4281 
 609   0.0000       4.737359       128.9101 
 610   0.0000       4.749577       129.2426 
 611   0.0000       4.760740       129.5463 
 612   0.0000       4.778477       130.0290 
 613   0.0000       4.787174       130.2656 
 614   0.0000       4.794363       130.4613 
 615   0.0000       4.812200       130.9466 
 616   0.0000       4.816838       131.0728 
 617   0.0000       4.832843       131.5083 
 618   0.0000       4.874452       132.6406 
 619   0.0000       4.894856       133.1958 
 620   0.0000       4.916110       133.7742 
 621   0.0000       4.925613       134.0327 
 622   0.0000       4.947466       134.6274 
 623   0.0000       4.953688       134.7967 
 624   0.0000       4.961548       135.0106 
 625   0.0000       4.996352       135.9576 
 626   0.0000       5.007035       136.2484 
 627   0.0000       5.016142       136.4962 
 628   0.0000       5.032531       136.9421 
 629   0.0000       5.044483       137.2674 
 630   0.0000       5.050076       137.4195 
 631   0.0000       5.054617       137.5431 
 632   0.0000       5.069411       137.9457 
 633   0.0000       5.075441       138.1098 
 634   0.0000       5.081216       138.2669 
 635   0.0000       5.091882       138.5572 
 636   0.0000       5.092266       138.5676 
 637   0.0000       5.107239       138.9750 
 638   0.0000       5.118332       139.2769 
 639   0.0000       5.139462       139.8519 
 640   0.0000       5.185583       141.1069 
 641   0.0000       5.193675       141.3271 
 642   0.0000       5.196793       141.4119 
 643   0.0000       5.223082       142.1273 
 644   0.0000       5.230703       142.3347 
 645   0.0000       5.252468       142.9269 
 646   0.0000       5.264036       143.2417 
 647   0.0000       5.281707       143.7226 
 648   0.0000       5.296000       144.1115 
 649   0.0000       5.322202       144.8245 
 650   0.0000       5.326036       144.9288 
 651   0.0000       5.342775       145.3843 
 652   0.0000       5.365359       145.9988 
 653   0.0000       5.379989       146.3970 
 654   0.0000       5.383154       146.4831 
 655   0.0000       5.393802       146.7728 
 656   0.0000       5.398922       146.9121 
 657   0.0000       5.405076       147.0796 
 658   0.0000       5.424269       147.6019 
 659   0.0000       5.439733       148.0227 
 660   0.0000       5.443993       148.1386 
 661   0.0000       5.461046       148.6026 
 662   0.0000       5.464897       148.7074 
 663   0.0000       5.486126       149.2851 
 664   0.0000       5.496577       149.5695 
 665   0.0000       5.504858       149.7948 
 666   0.0000       5.506907       149.8506 
 667   0.0000       5.514980       150.0702 
 668   0.0000       5.521804       150.2559 
 669   0.0000       5.535139       150.6188 
 670   0.0000       5.548572       150.9843 
 671   0.0000       5.570414       151.5787 
 672   0.0000       5.599836       152.3793 
 673   0.0000       5.619009       152.9010 
 674   0.0000       5.642817       153.5489 
 675   0.0000       5.656355       153.9173 
 676   0.0000       5.668312       154.2426 
 677   0.0000       5.679971       154.5599 
 678   0.0000       5.696227       155.0022 
 679   0.0000       5.702119       155.1626 
 680   0.0000       5.705587       155.2569 
 681   0.0000       5.711990       155.4312 
 682   0.0000       5.742965       156.2740 
 683   0.0000       5.764743       156.8666 
 684   0.0000       5.781524       157.3233 
 685   0.0000       5.827936       158.5862 
 686   0.0000       5.840152       158.9186 
 687   0.0000       5.874955       159.8657 
 688   0.0000       5.886804       160.1881 
 689   0.0000       5.946198       161.8043 
 690   0.0000       6.067397       165.1023 
 691   0.0000       6.086503       165.6222 
 692   0.0000       6.141849       167.1282 
 693   0.0000       6.167989       167.8395 
 694   0.0000       6.283739       170.9892 
 695   0.0000       6.342241       172.5812 
 696   0.0000       6.458718       175.7507 
 697   0.0000       6.572407       178.8443 
 698   0.0000       6.620338       180.1485 
 699   0.0000       6.780998       184.5203 
 700   0.0000       6.824180       185.6954 
 701   0.0000       6.889981       187.4859 
 702   0.0000       6.962289       189.4535 
 703   0.0000       7.128401       193.9736 
 704   0.0000       7.197491       195.8537 
 705   0.0000       7.406246       201.5342 
 706   0.0000       7.505457       204.2339 
 707   0.0000       7.592870       206.6125 
 708   0.0000       7.721566       210.1145 
 709   0.0000      23.608859       642.4297 
 710   0.0000      23.657317       643.7483 
 711   0.0000      23.868252       649.4882 
 712   0.0000      23.969757       652.2503 
 713   0.0000      23.985539       652.6797 
 714   0.0000      24.029412       653.8735 
 715   0.0000      24.102917       655.8737 
 716   0.0000      25.614283       697.0001 
 717   0.0000      33.616419       914.7493 
 718   0.0000      44.878303      1221.2007 
 719   0.0000      44.991149      1224.2714 
 720   0.0000      86.011975      2340.5048 

                    ********************************
                    * MULLIKEN POPULATION ANALYSIS *
                    ********************************

-----------------------
MULLIKEN ATOMIC CHARGES
-----------------------
   0 Mo:    0.595773
   1 C :    0.020975
   2 C :   -0.721971
   3 H :    0.278237
   4 H :    0.286519
   5 H :    0.262937
   6 C :   -0.653966
   7 C :   -0.553045
   8 N :   -0.577442
   9 O :   -0.508633
  10 O :   -0.378292
  11 H :    0.241446
  12 H :    0.231644
  13 H :    0.205188
  14 H :    0.204303
  15 H :    0.220849
  16 H :    0.157483
  17 C :   -0.355878
  18 C :   -0.216611
  19 H :    0.331229
  20 H :    0.312937
  21 H :    0.403525
  22 H :    0.303948
  23 C :   -1.346290
  24 H :    0.246836
  25 H :    0.344437
  26 H :    0.255075
  27 H :    0.408785
Sum of atomic charges:   -0.0000000

--------------------------------
MULLIKEN REDUCED ORBITAL CHARGES
--------------------------------
  0 Mos       :     2.796784  s :     2.796784
      pz      :     2.312158  p :     6.465079
      px      :     2.129039
      py      :     2.023883
      dz2     :     0.781973  d :     3.928315
      dxz     :     0.935394
      dyz     :     0.766277
      dx2y2   :     0.718269
      dxy     :     0.726402
      f0      :     0.029821  f :     0.201444
      f+1     :     0.020590
      f-1     :     0.021341
      f+2     :     0.020781
      f-2     :     0.025756
      f+3     :     0.031997
      f-3     :     0.051159
      g0      :     0.001369  g :     0.012605
      g+1     :     0.001000
      g-1     :     0.001294
      g+2     :     0.000982
      g-2     :     0.000915
      g+3     :     0.001432
      g-3     :     0.000950
      g+4     :     0.002608
      g-4     :     0.002054
  1 C s       :     3.429533  s :     3.429533
      pz      :     0.898964  p :     2.692703
      px      :     0.860368
      py      :     0.933370
      dz2     :    -0.059665  d :    -0.149331
      dxz     :    -0.039381
      dyz     :    -0.003405
      dx2y2   :    -0.037610
      dxy     :    -0.009270
      f0      :     0.001004  f :     0.006119
      f+1     :     0.001409
      f-1     :     0.001344
      f+2     :     0.000443
      f-2     :     0.000762
      f+3     :     0.000637
      f-3     :     0.000520
  2 C s       :     3.373513  s :     3.373513
      pz      :     1.187886  p :     3.217890
      px      :     1.186759
      py      :     0.843245
      dz2     :     0.015024  d :     0.125457
      dxz     :     0.041234
      dyz     :     0.044731
      dx2y2   :     0.016601
      dxy     :     0.007866
      f0      :     0.000357  f :     0.005112
      f+1     :     0.000174
      f-1     :     0.000992
      f+2     :     0.000981
      f-2     :     0.000647
      f+3     :     0.000926
      f-3     :     0.001034
  3 H s       :     0.665953  s :     0.665953
      pz      :     0.017778  p :     0.053554
      px      :     0.016595
      py      :     0.019181
      dz2     :     0.000637  d :     0.002256
      dxz     :     0.000391
      dyz     :     0.000497
      dx2y2   :     0.000369
      dxy     :     0.000362
  4 H s       :     0.681335  s :     0.681335
      pz      :     0.003424  p :     0.029825
      px      :     0.020891
      py      :     0.005510
      dz2     :     0.000256  d :     0.002320
      dxz     :     0.000666
      dyz     :     0.000146
      dx2y2   :     0.000502
      dxy     :     0.000751
  5 H s       :     0.685234  s :     0.685234
      pz      :     0.016275  p :     0.049497
      px      :     0.019672
      py      :     0.013550
      dz2     :     0.000620  d :     0.002331
      dxz     :     0.000475
      dyz     :     0.000573
      dx2y2   :     0.000412
      dxy     :     0.000252
  6 C s       :     3.415316  s :     3.415316
      pz      :     1.103558  p :     3.046393
      px      :     0.847754
      py      :     1.095080
      dz2     :     0.062092  d :     0.183640
      dxz     :     0.035403
      dyz     :     0.021412
      dx2y2   :     0.008458
      dxy     :     0.056275
      f0      :     0.000555  f :     0.008617
      f+1     :     0.001766
      f-1     :     0.000548
      f+2     :     0.001076
      f-2     :     0.001451
      f+3     :     0.001965
      f-3     :     0.001255
  7 C s       :     3.375860  s :     3.375860
      pz      :     1.159887  p :     2.979840
      px      :     1.051812
      py      :     0.768142
      dz2     :     0.047570  d :     0.188871
      dxz     :     0.022085
      dyz     :     0.037115
      dx2y2   :     0.045925
      dxy     :     0.036176
      f0      :     0.001079  f :     0.008474
      f+1     :     0.000499
      f-1     :     0.000980
      f+2     :     0.000643
      f-2     :     0.001210
      f+3     :     0.001563
      f-3     :     0.002499
  8 N s       :     4.088350  s :     4.088350
      pz      :     1.314076  p :     3.527698
      px      :     1.223990
      py      :     0.989632
      dz2     :    -0.004691  d :    -0.043320
      dxz     :    -0.000922
      dyz     :     0.008997
      dx2y2   :    -0.035930
      dxy     :    -0.010775
      f0      :     0.000461  f :     0.004713
      f+1     :     0.000174
      f-1     :     0.000683
      f+2     :     0.000547
      f-2     :     0.000581
      f+3     :     0.001138
      f-3     :     0.001129
  9 O s       :     3.805439  s :     3.805439
      pz      :     1.751042  p :     4.683924
      px      :     1.560435
      py      :     1.372447
      dz2     :     0.004374  d :     0.017823
      dxz     :     0.007383
      dyz     :     0.004367
      dx2y2   :     0.007647
      dxy     :    -0.005948
      f0      :     0.000155  f :     0.001447
      f+1     :     0.000142
      f-1     :     0.000185
      f+2     :     0.000104
      f-2     :     0.000171
      f+3     :     0.000401
      f-3     :     0.000290
 10 O s       :     3.789289  s :     3.789289
      pz      :     1.654593  p :     4.599796
      px      :     1.386266
      py      :     1.558937
      dz2     :     0.004511  d :    -0.012279
      dxz     :    -0.001751
      dyz     :     0.006147
      dx2y2   :    -0.005922
      dxy     :    -0.015263
      f0      :     0.000178  f :     0.001486
      f+1     :     0.000181
      f-1     :     0.000110
      f+2     :     0.000198
      f-2     :     0.000280
      f+3     :     0.000224
      f-3     :     0.000315
 11 H s       :     0.714608  s :     0.714608
      pz      :     0.020981  p :     0.041741
      px      :     0.001888
      py      :     0.018872
      dz2     :     0.000635  d :     0.002205
      dxz     :     0.000671
      dyz     :     0.000639
      dx2y2   :     0.000068
      dxy     :     0.000192
 12 H s       :     0.725671  s :     0.725671
      pz      :     0.010395  p :     0.040461
      px      :     0.006144
      py      :     0.023922
      dz2     :     0.000513  d :     0.002224
      dxz     :     0.000246
      dyz     :     0.000461
      dx2y2   :     0.000440
      dxy     :     0.000564
 13 H s       :     0.756707  s :     0.756707
      pz      :     0.000735  p :     0.035772
      px      :     0.018236
      py      :     0.016801
      dz2     :     0.000151  d :     0.002333
      dxz     :     0.000407
      dyz     :     0.000384
      dx2y2   :     0.000850
      dxy     :     0.000541
 14 H s       :     0.750283  s :     0.750283
      pz      :     0.011744  p :     0.043218
      px      :     0.025498
      py      :     0.005976
      dz2     :     0.000534  d :     0.002196
      dxz     :     0.000495
      dyz     :     0.000169
      dx2y2   :     0.000358
      dxy     :     0.000641
 15 H s       :     0.731296  s :     0.731296
      pz      :     0.022062  p :     0.045646
      px      :     0.017587
      py      :     0.005998
      dz2     :     0.000645  d :     0.002209
      dxz     :     0.000688
      dyz     :     0.000705
      dx2y2   :     0.000038
      dxy     :     0.000132
 16 H s       :     0.837680  s :     0.837680
      pz      :    -0.009157  p :     0.002629
      px      :    -0.000248
      py      :     0.012034
      dz2     :     0.000239  d :     0.002208
      dxz     :     0.000280
      dyz     :     0.000392
      dx2y2   :     0.000808
      dxy     :     0.000489
 17 C s       :     3.216072  s :     3.216072
      pz      :     0.985362  p :     3.099950
      px      :     0.964584
      py      :     1.150004
      dz2     :    -0.000090  d :     0.036143
      dxz     :     0.018077
      dyz     :     0.010909
      dx2y2   :     0.005913
      dxy     :     0.001334
      f0      :     0.001141  f :     0.003713
      f+1     :     0.000831
      f-1     :     0.000709
      f+2     :     0.000228
      f-2     :     0.000483
      f+3     :     0.000271
      f-3     :     0.000052
 18 C s       :     3.172922  s :     3.172922
      pz      :     0.892280  p :     3.058834
      px      :     1.020601
      py      :     1.145953
      dz2     :    -0.007420  d :    -0.019402
      dxz     :     0.004912
      dyz     :    -0.025167
      dx2y2   :     0.000982
      dxy     :     0.007292
      f0      :     0.000995  f :     0.004257
      f+1     :     0.001160
      f-1     :     0.001028
      f+2     :     0.000223
      f-2     :     0.000503
      f+3     :     0.000237
      f-3     :     0.000112
 19 H s       :     0.600895  s :     0.600895
      pz      :     0.032169  p :     0.065470
      px      :     0.014984
      py      :     0.018317
      dz2     :     0.000535  d :     0.002405
      dxz     :     0.000276
      dyz     :     0.000663
      dx2y2   :     0.000426
      dxy     :     0.000505
 20 H s       :     0.619181  s :     0.619181
      pz      :     0.028747  p :     0.065568
      px      :     0.016514
      py      :     0.020307
      dz2     :     0.000720  d :     0.002313
      dxz     :     0.000418
      dyz     :     0.000451
      dx2y2   :     0.000376
      dxy     :     0.000347
 21 H s       :     0.527028  s :     0.527028
      pz      :     0.026873  p :     0.067162
      px      :     0.013039
      py      :     0.027250
      dz2     :     0.000364  d :     0.002285
      dxz     :     0.000226
      dyz     :     0.000581
      dx2y2   :     0.000536
      dxy     :     0.000578
 22 H s       :     0.630899  s :     0.630899
      pz      :     0.019810  p :     0.062774
      px      :     0.020649
      py      :     0.022314
      dz2     :     0.000704  d :     0.002380
      dxz     :     0.000469
      dyz     :     0.000370
      dx2y2   :     0.000432
      dxy     :     0.000404
 23 C s       :     3.679700  s :     3.679700
      pz      :     1.208887  p :     3.542708
      px      :     1.176336
      py      :     1.157485
      dz2     :     0.003409  d :     0.121167
      dxz     :     0.017682
      dyz     :     0.031704
      dx2y2   :     0.043198
      dxy     :     0.025174
      f0      :     0.000116  f :     0.002715
      f+1     :     0.000338
      f-1     :     0.000388
      f+2     :     0.000299
      f-2     :     0.000762
      f+3     :     0.000403
      f-3     :     0.000410
 24 H s       :     0.691596  s :     0.691596
      pz      :     0.023315  p :     0.059312
      px      :     0.010392
      py      :     0.025606
      dz2     :     0.000642  d :     0.002255
      dxz     :     0.000561
      dyz     :     0.000551
      dx2y2   :     0.000226
      dxy     :     0.000276
 25 H s       :     0.588964  s :     0.588964
      pz      :     0.032685  p :     0.064442
      px      :     0.020996
      py      :     0.010761
      dz2     :     0.000218  d :     0.002157
      dxz     :     0.000457
      dyz     :     0.000311
      dx2y2   :     0.000625
      dxy     :     0.000546
 26 H s       :     0.704180  s :     0.704180
      pz      :     0.005539  p :     0.038402
      px      :     0.014559
      py      :     0.018304
      dz2     :     0.000621  d :     0.002343
      dxz     :     0.000366
      dyz     :     0.000488
      dx2y2   :     0.000373
      dxy     :     0.000495
 27 H s       :     0.513089  s :     0.513089
      pz      :     0.031346  p :     0.075587
      px      :     0.024177
      py      :     0.020064
      dz2     :     0.000653  d :     0.002539
      dxz     :     0.000432
      dyz     :     0.000449
      dx2y2   :     0.000545
      dxy     :     0.000459


                     *******************************
                     * LOEWDIN POPULATION ANALYSIS *
                     *******************************

----------------------
LOEWDIN ATOMIC CHARGES
----------------------
   0 Mo:    1.146032
   1 C :   -0.195586
   2 C :    0.012209
   3 H :   -0.005899
   4 H :   -0.019511
   5 H :   -0.006705
   6 C :   -0.002177
   7 C :   -0.023005
   8 N :   -0.112066
   9 O :   -0.352179
  10 O :   -0.342231
  11 H :   -0.005533
  12 H :   -0.004974
  13 H :   -0.022760
  14 H :   -0.005464
  15 H :   -0.006920
  16 H :   -0.025156
  17 C :    0.068609
  18 C :    0.069081
  19 H :   -0.084563
  20 H :   -0.090776
  21 H :   -0.017453
  22 H :   -0.009576
  23 C :    0.087190
  24 H :   -0.014406
  25 H :   -0.006215
  26 H :   -0.016988
  27 H :   -0.012980

-------------------------------
LOEWDIN REDUCED ORBITAL CHARGES
-------------------------------
  0 Mos       :     1.813511  s :     1.813511
      pz      :     2.082951  p :     6.304463
      px      :     2.112205
      py      :     2.109307
      dz2     :     0.929956  d :     4.208069
      dxz     :     0.909391
      dyz     :     0.799821
      dx2y2   :     0.780443
      dxy     :     0.788458
      f0      :     0.059738  f :     0.479756
      f+1     :     0.046787
      f-1     :     0.061881
      f+2     :     0.047270
      f-2     :     0.050175
      f+3     :     0.102352
      f-3     :     0.111553
      g0      :     0.005897  g :     0.048169
      g+1     :     0.004031
      g-1     :     0.005452
      g+2     :     0.003349
      g-2     :     0.003392
      g+3     :     0.005088
      g-3     :     0.003330
      g+4     :     0.008457
      g-4     :     0.009173
  1 C s       :     2.661584  s :     2.661584
      pz      :     0.950213  p :     2.644950
      px      :     0.827646
      py      :     0.867091
      dz2     :     0.193085  d :     0.849499
      dxz     :     0.191388
      dyz     :     0.209637
      dx2y2   :     0.129578
      dxy     :     0.125811
      f0      :     0.007100  f :     0.039553
      f+1     :     0.008394
      f-1     :     0.008500
      f+2     :     0.003845
      f-2     :     0.004350
      f+3     :     0.003929
      f-3     :     0.003436
  2 C s       :     2.662535  s :     2.662535
      pz      :     0.918220  p :     2.671939
      px      :     0.908813
      py      :     0.844905
      dz2     :     0.069079  d :     0.605181
      dxz     :     0.080197
      dyz     :     0.185038
      dx2y2   :     0.163436
      dxy     :     0.107432
      f0      :     0.004895  f :     0.048136
      f+1     :     0.003931
      f-1     :     0.008856
      f+2     :     0.006787
      f-2     :     0.005949
      f+3     :     0.009052
      f-3     :     0.008666
  3 H s       :     0.705908  s :     0.705908
      pz      :     0.104527  p :     0.271444
      px      :     0.074326
      py      :     0.092590
      dz2     :     0.006849  d :     0.028548
      dxz     :     0.005058
      dyz     :     0.008212
      dx2y2   :     0.004238
      dxy     :     0.004191
  4 H s       :     0.697553  s :     0.697553
      pz      :     0.084644  p :     0.293356
      px      :     0.133688
      py      :     0.075024
      dz2     :     0.003649  d :     0.028602
      dxz     :     0.009020
      dyz     :     0.001225
      dx2y2   :     0.007556
      dxy     :     0.007152
  5 H s       :     0.700579  s :     0.700579
      pz      :     0.111459  p :     0.277571
      px      :     0.097297
      py      :     0.068816
      dz2     :     0.008260  d :     0.028555
      dxz     :     0.006957
      dyz     :     0.006076
      dx2y2   :     0.003715
      dxy     :     0.003546
  6 C s       :     2.655955  s :     2.655955
      pz      :     0.892172  p :     2.591865
      px      :     0.800887
      py      :     0.898806
      dz2     :     0.139885  d :     0.687474
      dxz     :     0.123765
      dyz     :     0.109601
      dx2y2   :     0.134340
      dxy     :     0.179883
      f0      :     0.005808  f :     0.066883
      f+1     :     0.012677
      f-1     :     0.004602
      f+2     :     0.011184
      f-2     :     0.009441
      f+3     :     0.013053
      f-3     :     0.010117
  7 C s       :     2.662580  s :     2.662580
      pz      :     0.921018  p :     2.592600
      px      :     0.883168
      py      :     0.788415
      dz2     :     0.126471  d :     0.701284
      dxz     :     0.103396
      dyz     :     0.120345
      dx2y2   :     0.181265
      dxy     :     0.169806
      f0      :     0.008266  f :     0.066540
      f+1     :     0.003406
      f-1     :     0.008448
      f+2     :     0.009599
      f-2     :     0.009004
      f+3     :     0.013160
      f-3     :     0.014657
  8 N s       :     3.076611  s :     3.076611
      pz      :     1.149225  p :     3.381635
      px      :     1.095301
      py      :     1.137109
      dz2     :     0.087817  d :     0.638965
      dxz     :     0.049624
      dyz     :     0.150906
      dx2y2   :     0.172170
      dxy     :     0.178447
      f0      :     0.001098  f :     0.014856
      f+1     :     0.000608
      f-1     :     0.002926
      f+2     :     0.001491
      f-2     :     0.001500
      f+3     :     0.004799
      f-3     :     0.002434
  9 O s       :     3.321571  s :     3.321571
      pz      :     1.591460  p :     4.526539
      px      :     1.494139
      py      :     1.440939
      dz2     :     0.063804  d :     0.499954
      dxz     :     0.062474
      dyz     :     0.084600
      dx2y2   :     0.145214
      dxy     :     0.143861
      f0      :     0.000356  f :     0.004115
      f+1     :     0.000346
      f-1     :     0.000523
      f+2     :     0.000408
      f-2     :     0.000478
      f+3     :     0.000925
      f-3     :     0.001080
 10 O s       :     3.309526  s :     3.309526
      pz      :     1.545292  p :     4.536885
      px      :     1.463040
      py      :     1.528553
      dz2     :     0.080749  d :     0.491799
      dxz     :     0.086516
      dyz     :     0.064656
      dx2y2   :     0.129651
      dxy     :     0.130227
      f0      :     0.000345  f :     0.004021
      f+1     :     0.000640
      f-1     :     0.000239
      f+2     :     0.000559
      f-2     :     0.000658
      f+3     :     0.000797
      f-3     :     0.000783
 11 H s       :     0.713781  s :     0.713781
      pz      :     0.126139  p :     0.263908
      px      :     0.057401
      py      :     0.080368
      dz2     :     0.010060  d :     0.027843
      dxz     :     0.006302
      dyz     :     0.008612
      dx2y2   :     0.001118
      dxy     :     0.001751
 12 H s       :     0.712295  s :     0.712295
      pz      :     0.089968  p :     0.264676
      px      :     0.067314
      py      :     0.107393
      dz2     :     0.005539  d :     0.028003
      dxz     :     0.003782
      dyz     :     0.006800
      dx2y2   :     0.005889
      dxy     :     0.005993
 13 H s       :     0.690161  s :     0.690161
      pz      :     0.075902  p :     0.303990
      px      :     0.094600
      py      :     0.133488
      dz2     :     0.002735  d :     0.028609
      dxz     :     0.004402
      dyz     :     0.004883
      dx2y2   :     0.007777
      dxy     :     0.008813
 14 H s       :     0.711950  s :     0.711950
      pz      :     0.094978  p :     0.265485
      px      :     0.115007
      py      :     0.055500
      dz2     :     0.006266  d :     0.028029
      dxz     :     0.007979
      dyz     :     0.002193
      dx2y2   :     0.005776
      dxy     :     0.005816
 15 H s       :     0.711833  s :     0.711833
      pz      :     0.135723  p :     0.267268
      px      :     0.076246
      py      :     0.055299
      dz2     :     0.010272  d :     0.027818
      dxz     :     0.009189
      dyz     :     0.006983
      dx2y2   :     0.000518
      dxy     :     0.000856
 16 H s       :     0.704701  s :     0.704701
      pz      :     0.081773  p :     0.292451
      px      :     0.110909
      py      :     0.099769
      dz2     :     0.003444  d :     0.028003
      dxz     :     0.003583
      dyz     :     0.005436
      dx2y2   :     0.007693
      dxy     :     0.007847
 17 C s       :     2.807241  s :     2.807241
      pz      :     0.991938  p :     2.665963
      px      :     0.756186
      py      :     0.917840
      dz2     :     0.109321  d :     0.437607
      dxz     :     0.094730
      dyz     :     0.129836
      dx2y2   :     0.042849
      dxy     :     0.060871
      f0      :     0.007854  f :     0.020580
      f+1     :     0.003405
      f-1     :     0.003292
      f+2     :     0.001132
      f-2     :     0.002873
      f+3     :     0.001364
      f-3     :     0.000659
 18 C s       :     2.676358  s :     2.676358
      pz      :     0.954351  p :     2.589881
      px      :     0.777538
      py      :     0.857992
      dz2     :     0.142457  d :     0.635650
      dxz     :     0.183978
      dyz     :     0.166937
      dx2y2   :     0.060293
      dxy     :     0.081985
      f0      :     0.007322  f :     0.029031
      f+1     :     0.006456
      f-1     :     0.007027
      f+2     :     0.001771
      f-2     :     0.003821
      f+3     :     0.001343
      f-3     :     0.001291
 19 H s       :     0.733271  s :     0.733271
      pz      :     0.105537  p :     0.321920
      px      :     0.089014
      py      :     0.127369
      dz2     :     0.005149  d :     0.029372
      dxz     :     0.003066
      dyz     :     0.008632
      dx2y2   :     0.005818
      dxy     :     0.006708
 20 H s       :     0.743055  s :     0.743055
      pz      :     0.115677  p :     0.318483
      px      :     0.093710
      py      :     0.109096
      dz2     :     0.007113  d :     0.029238
      dxz     :     0.005533
      dyz     :     0.006800
      dx2y2   :     0.004600
      dxy     :     0.005192
 21 H s       :     0.692866  s :     0.692866
      pz      :     0.079460  p :     0.295079
      px      :     0.093361
      py      :     0.122258
      dz2     :     0.004278  d :     0.029509
      dxz     :     0.002208
      dyz     :     0.007866
      dx2y2   :     0.007432
      dxy     :     0.007725
 22 H s       :     0.694044  s :     0.694044
      pz      :     0.092292  p :     0.286504
      px      :     0.103450
      py      :     0.090762
      dz2     :     0.006951  d :     0.029028
      dxz     :     0.007020
      dyz     :     0.004710
      dx2y2   :     0.004766
      dxy     :     0.005580
 23 C s       :     2.644302  s :     2.644302
      pz      :     0.909968  p :     2.710348
      px      :     0.897046
      py      :     0.903333
      dz2     :     0.081740  d :     0.527798
      dxz     :     0.089164
      dyz     :     0.122244
      dx2y2   :     0.094270
      dxy     :     0.140380
      f0      :     0.003319  f :     0.030362
      f+1     :     0.004603
      f-1     :     0.004493
      f+2     :     0.003562
      f-2     :     0.004718
      f+3     :     0.004419
      f-3     :     0.005247
 24 H s       :     0.700107  s :     0.700107
      pz      :     0.112159  p :     0.285069
      px      :     0.082478
      py      :     0.090432
      dz2     :     0.008914  d :     0.029231
      dxz     :     0.006489
      dyz     :     0.007695
      dx2y2   :     0.002748
      dxy     :     0.003384
 25 H s       :     0.699240  s :     0.699240
      pz      :     0.079619  p :     0.278088
      px      :     0.107687
      py      :     0.090782
      dz2     :     0.003278  d :     0.028887
      dxz     :     0.006338
      dyz     :     0.003809
      dx2y2   :     0.008075
      dxy     :     0.007387
 26 H s       :     0.689715  s :     0.689715
      pz      :     0.104531  p :     0.297754
      px      :     0.084558
      py      :     0.108665
      dz2     :     0.006848  d :     0.029519
      dxz     :     0.004925
      dyz     :     0.007207
      dx2y2   :     0.004874
      dxy     :     0.005665
 27 H s       :     0.676882  s :     0.676882
      pz      :     0.089954  p :     0.304829
      px      :     0.105817
      py      :     0.109058
      dz2     :     0.006642  d :     0.031269
      dxz     :     0.004939
      dyz     :     0.007837
      dx2y2   :     0.006109
      dxy     :     0.005742


                      *****************************
                      * MAYER POPULATION ANALYSIS *
                      *****************************

  NA   - Mulliken gross atomic population
  ZA   - Total nuclear charge
  QA   - Mulliken gross atomic charge
  VA   - Mayer's total valence
  BVA  - Mayer's bonded valence
  FA   - Mayer's free valence

  ATOM       NA         ZA         QA         VA         BVA        FA
  0 Mo    13.4042    14.0000     0.5958     6.3359     6.3359    -0.0000
  1 C      5.9790     6.0000     0.0210     2.3406     2.3406    -0.0000
  2 C      6.7220     6.0000    -0.7220     3.3961     3.3961    -0.0000
  3 H      0.7218     1.0000     0.2782     1.0172     1.0172    -0.0000
  4 H      0.7135     1.0000     0.2865     0.9622     0.9622     0.0000
  5 H      0.7371     1.0000     0.2629     1.0091     1.0091    -0.0000
  6 C      6.6540     6.0000    -0.6540     3.6772     3.6772    -0.0000
  7 C      6.5530     6.0000    -0.5530     3.7503     3.7503     0.0000
  8 N      7.5774     7.0000    -0.5774     1.9796     1.9796     0.0000
  9 O      8.5086     8.0000    -0.5086     1.6410     1.6410     0.0000
 10 O      8.3783     8.0000    -0.3783     1.4815     1.4815    -0.0000
 11 H      0.7586     1.0000     0.2414     1.0199     1.0199    -0.0000
 12 H      0.7684     1.0000     0.2316     1.0017     1.0017    -0.0000
 13 H      0.7948     1.0000     0.2052     1.0261     1.0261    -0.0000
 14 H      0.7957     1.0000     0.2043     1.0457     1.0457     0.0000
 15 H      0.7792     1.0000     0.2208     1.0428     1.0428     0.0000
 16 H      0.8425     1.0000     0.1575     0.9548     0.9548    -0.0000
 17 C      6.3559     6.0000    -0.3559     3.5656     3.5656    -0.0000
 18 C      6.2166     6.0000    -0.2166     2.7019     2.7019    -0.0000
 19 H      0.6688     1.0000     0.3312     1.0043     1.0043    -0.0000
 20 H      0.6871     1.0000     0.3129     1.0250     1.0250    -0.0000
 21 H      0.5965     1.0000     0.4035     0.9276     0.9276    -0.0000
 22 H      0.6961     1.0000     0.3039     1.0023     1.0023    -0.0000
 23 C      7.3463     6.0000    -1.3463     3.7155     3.7155     0.0000
 24 H      0.7532     1.0000     0.2468     1.0157     1.0157     0.0000
 25 H      0.6556     1.0000     0.3444     0.9682     0.9682     0.0000
 26 H      0.7449     1.0000     0.2551     0.9593     0.9593     0.0000
 27 H      0.5912     1.0000     0.4088     0.8766     0.8766    -0.0000

  Mayer bond orders larger than 0.100000
B(  0-Mo,  1-C ) :   0.7181 B(  0-Mo,  2-C ) :   0.1293 B(  0-Mo,  8-N ) :   1.5378 
B(  0-Mo,  9-O ) :   0.8217 B(  0-Mo, 10-O ) :   0.8793 B(  0-Mo, 17-C ) :   1.5948 
B(  0-Mo, 18-C ) :   0.2140 B(  0-Mo, 23-C ) :   0.1768 B(  1-C , 10-O ) :  -0.1037 
B(  1-C , 18-C ) :   0.7084 B(  1-C , 23-C ) :   0.5536 B(  1-C , 26-H ) :  -0.1084 
B(  1-C , 27-H ) :   0.8616 B(  2-C ,  3-H ) :   0.9602 B(  2-C ,  4-H ) :   0.8824 
B(  2-C ,  5-H ) :   0.9637 B(  2-C ,  8-N ) :   0.4553 B(  6-C , 10-O ) :   0.7920 
B(  6-C , 11-H ) :   0.9744 B(  6-C , 12-H ) :   0.9756 B(  6-C , 13-H ) :   0.9471 
B(  7-C ,  9-O ) :   0.8391 B(  7-C , 14-H ) :   1.0096 B(  7-C , 15-H ) :   0.9748 
B(  7-C , 16-H ) :   0.9312 B( 17-C , 18-C ) :   0.1430 B( 17-C , 19-H ) :   0.9527 
B( 17-C , 20-H ) :   0.9716 B( 18-C , 21-H ) :   0.8920 B( 18-C , 22-H ) :   1.0182 
B( 23-C , 24-H ) :   0.9993 B( 23-C , 25-H ) :   0.9365 B( 23-C , 26-H ) :   1.0281 


-------
TIMINGS
-------

Total SCF time: 0 days 0 hours 7 min 14 sec 

Total time                  ....     434.520 sec
Sum of individual times     ....     433.391 sec  ( 99.7%)

Fock matrix formation       ....     427.225 sec  ( 98.3%)
  XC integration            ....       8.440 sec  (  2.0% of F)
    Basis function eval.    ....       0.823 sec  (  9.8% of XC)
    Density eval.           ....       2.718 sec  ( 32.2% of XC)
    XC-Functional eval.     ....       0.102 sec  (  1.2% of XC)
    XC-Potential eval.      ....       3.773 sec  ( 44.7% of XC)
Diagonalization             ....       1.841 sec  (  0.4%)
Density matrix formation    ....       0.082 sec  (  0.0%)
Population analysis         ....       0.107 sec  (  0.0%)
Initial guess               ....       2.459 sec  (  0.6%)
Orbital Transformation      ....       0.000 sec  (  0.0%)
Orbital Orthonormalization  ....       0.000 sec  (  0.0%)
DIIS solution               ....       1.011 sec  (  0.2%)
Grid generation             ....       0.666 sec  (  0.2%)

-------------------------   --------------------
FINAL SINGLE POINT ENERGY      -550.260913773829
-------------------------   --------------------


                            ***************************************
                            *     ORCA property calculations      *
                            ***************************************

                                    ---------------------
                                    Active property flags
                                    ---------------------
   (+) Dipole Moment


------------------------------------------------------------------------------
                       ORCA ELECTRIC PROPERTIES CALCULATION
------------------------------------------------------------------------------

Dipole Moment Calculation                       ... on
Quadrupole Moment Calculation                   ... off
Polarizability Calculation                      ... off
GBWName                                         ... TMB09_T1.gbw
Electron density file                           ... TMB09_T1.scfp
The origin for moment calculation is the CENTER OF MASS  = ( 0.043409, -0.024360  0.032073)

-------------
DIPOLE MOMENT
-------------
                                X             Y             Z
Electronic contribution:     10.58941      -2.95254      13.29531
Nuclear contribution   :    -11.80214       3.30573     -13.02417
                        -----------------------------------------
Total Dipole Moment    :     -1.21273       0.35318       0.27114
                        -----------------------------------------
Magnitude (a.u.)       :      1.29188
Magnitude (Debye)      :      3.28371



--------------------
Rotational spectrum 
--------------------
 
Rotational constants in cm-1:     0.031577     0.026703     0.018834 
Rotational constants in MHz :   946.666634   800.534327   564.625423 

 Dipole components along the rotational axes: 
x,y,z [a.u.] :     1.203135     0.389404     0.264189 
x,y,z [Debye]:     3.058126     0.989787     0.671514 

 

Timings for individual modules:

Sum of individual times         ...      438.375 sec (=   7.306 min)
GTO integral calculation        ...        3.442 sec (=   0.057 min)   0.8 %
SCF iterations                  ...      434.933 sec (=   7.249 min)  99.2 %
                             ****ORCA TERMINATED NORMALLY****
TOTAL RUN TIME: 0 days 0 hours 7 minutes 18 seconds 970 msec
