
                                 *****************
                                 * O   R   C   A *
                                 *****************

           --- An Ab Initio, DFT and Semiempirical electronic structure package ---

                  #######################################################
                  #                        -***-                        #
                  #          Department of theory and spectroscopy      #
                  #               Directorship: Frank Neese             #
                  #        Max Planck Institute fuer Kohlenforschung    #
                  #                Kaiser Wilhelm Platz 1               #
                  #                 D-45470 Muelheim/Ruhr               #
                  #                      Germany                        #
                  #                                                     #
                  #                  All rights reserved                #
                  #                        -***-                        #
                  #######################################################


                         Program Version 4.2.0 -  RELEASE  -


 With contributions from (in alphabetic order):
   Daniel Aravena         : Magnetic Suceptibility
   Michael Atanasov       : Ab Initio Ligand Field Theory (pilot matlab implementation)
   Alexander A. Auer      : GIAO ZORA, VPT2
   Ute Becker             : Parallelization
   Giovanni Bistoni       : ED, misc. LED, open-shell LED, HFLED
   Martin Brehm           : Molecular dynamics
   Dmytro Bykov           : SCF Hessian
   Vijay G. Chilkuri      : MRCI spin determinant printing, contributions to CSF-ICE
   Dipayan Datta          : RHF DLPNO-CCSD density
   Achintya Kumar Dutta   : EOM-CC, STEOM-CC
   Dmitry Ganyushin       : Spin-Orbit,Spin-Spin,Magnetic field MRCI
   Miquel Garcia          : C-PCM Hessian, Gaussian charge scheme
   Yang Guo               : DLPNO-NEVPT2, CIM, IAO-localization
   Andreas Hansen         : Spin unrestricted coupled pair/coupled cluster methods
   Benjamin Helmich-Paris : CASSCF linear response (MC-RPA)
   Lee Huntington         : MR-EOM, pCC
   Robert Izsak           : Overlap fitted RIJCOSX, COSX-SCS-MP3, EOM
   Christian Kollmar      : KDIIS, OOCD, Brueckner-CCSD(T), CCSD density
   Simone Kossmann        : Meta GGA functionals, TD-DFT gradient, OOMP2, MP2 Hessian
   Martin Krupicka        : AUTO-CI
   Lucas Lang             : DCDCAS
   Dagmar Lenk            : GEPOL surface, SMD
   Dimitrios Liakos       : Extrapolation schemes; Compound Job, initial MDCI parallelization
   Dimitrios Manganas     : Further ROCIS development; embedding schemes
   Dimitrios Pantazis     : SARC Basis sets
   Taras Petrenko         : DFT Hessian,TD-DFT gradient, ASA, ECA, R-Raman, ABS, FL, XAS/XES, NRVS
   Peter Pinski           : DLPNO-MP2, DLPNO-MP2 Gradient
   Christoph Reimann      : Effective Core Potentials
   Marius Retegan         : Local ZFS, SOC
   Christoph Riplinger    : Optimizer, TS searches, QM/MM, DLPNO-CCSD(T), (RO)-DLPNO pert. Triples
   Tobias Risthaus        : Range-separated hybrids, TD-DFT gradient, RPA, STAB
   Michael Roemelt        : Original ROCIS implementation
   Masaaki Saitow         : Open-shell DLPNO-CCSD energy and density
   Barbara Sandhoefer     : DKH picture change effects
   Avijit Sen             : IP-ROCIS
   Kantharuban Sivalingam : CASSCF convergence, NEVPT2, FIC-MRCI
   Bernardo de Souza      : ESD, SOC TD-DFT
   Georgi Stoychev        : AutoAux, RI-MP2 NMR
   Willem Van den Heuvel  : Paramagnetic NMR
   Boris Wezisla          : Elementary symmetry handling
   Frank Wennmohs         : Technical directorship


 We gratefully acknowledge several colleagues who have allowed us to
 interface, adapt or use parts of their codes:
   Stefan Grimme, W. Hujo, H. Kruse,             : VdW corrections, initial TS optimization,
                  C. Bannwarth                     DFT functionals, gCP, sTDA/sTD-DF
   Ed Valeev, F. Pavosevic, A. Kumar             : LibInt (2-el integral package), F12 methods
   Garnet Chan, S. Sharma, J. Yang, R. Olivares  : DMRG
   Ulf Ekstrom                                   : XCFun DFT Library
   Mihaly Kallay                                 : mrcc  (arbitrary order and MRCC methods)
   Andreas Klamt, Michael Diedenhofen            : otool_cosmo (COSMO solvation model)
   Jiri Pittner, Ondrej Demel                    : Mk-CCSD
   Frank Weinhold                                : gennbo (NPA and NBO analysis)
   Christopher J. Cramer and Donald G. Truhlar   : smd solvation model
   Lars Goerigk                                  : TD-DFT with DH, B97 family of functionals
   V. Asgeirsson, H. Jonsson                     : NEB implementation
   FAccTs GmbH                                   : IRC, NEB, NEB-TS, Multilevel, MM, QM/MM, CI optimization
   S Lehtola, MJT Oliveira, MAL Marques          : LibXC Library


 Your calculation uses the libint2 library for the computation of 2-el integrals
 For citations please refer to: http://libint.valeyev.net

 Your ORCA version has been built with support for libXC version: 4.2.3
 For citations please refer to: https://tddft.org/programs/libxc/

 This ORCA versions uses:
   CBLAS   interface :  Fast vector & matrix operations
   LAPACKE interface :  Fast linear algebra routines
   SCALAPACK package :  Parallel linear algebra routines


Your calculation utilizes the DFT-NL dispersion correction.
Cite in your paper:
Vydrov, O. A.; Van Voorhis, T. J. Chem. Phys. 2010, 133, 244103
Hujo, W.; Grimme, S. J. Chem. Theory Comput. 2011, 7, 3866 
   

----- Orbital basis set information -----
Your calculation utilizes the basis: def2-TZVPPD
   F. Weigend and R. Ahlrichs, Phys. Chem. Chem. Phys. 7, 3297 (2005).
   D. Rappoport and F. Furche, J. Chem. Phys. 133 134105 (2010).

----- AuxJK basis set information -----
Your calculation utilizes the auxiliary basis: def2/JK
   H-Ba, Hf-Rn: F. Weigend, J. Comput. Chem. 29, 167 (2008).

cite the ECPs for W  [Def2-ECP] as follows:
Ce-Yb(ecp-28): M. Dolg, H. Stoll, H.Preuss, J. Chem. Phys., 1989, 90, 1730-1734.
Y-Cd(ecp-28), Hf-Hg(ecp-46): D. Andrae,U. Haeussermann, M. Dolg, H. Stoll, H. Preuss, Theor. Chim. Acta, 1990, 77, 123-141.
In-Sb(ecp-28), Tl-Bi(ecp-46): B. Metz, H. Stoll, M. Dolg, J. Chem. Phys., 2000, 113, 2563-2569.
Te-Xe(ecp-28), Po-Rn(ecp-46): K. A. Peterson, D. Figgen, E. Goll, H. Stoll, M. Dolg, J. Chem. Phys., 2003, 119, 11113-11123.
Rb(ecp-28), Cs(ecp-46): T. Leininger, A. Nicklass, W. Kuechle, H. Stoll, M. Dolg, A. Bergner, Chem. Phys. Lett., 1996, 255, 274-280.
Sr(ecp-28), Ba(ecp-46): M. Kaupp, P. V. Schleyer, H. Stoll and H. Preuss, J. Chem. Phys., 1991, 94, 1360-1366.
La(ecp-46): M. Dolg, H. Stoll, A. Savin, H. Preuss, Theor. Chim. Acta, 1989, 75, 173-194.
Lu(ecp-28): X. Cao, M. Dolg, J. Chem. Phys., 2001, 115, 7348-7355.

ECP parameters for W  [Def2-ECP] have been obtained from:
TURBOMOLE (7.0.2)

================================================================================
                                        WARNINGS
                       Please study these warnings very carefully!
================================================================================


INFO   : the flag for use of LIBINT has been found!

================================================================================
                                       INPUT FILE
================================================================================
NAME = TMB06_T1.in
|  1> #
|  2> # TMB06_T1 wB97M-V/Def2-TZVPPD
|  3> #
|  4> ! wb97m-v def2-tzvppd def2/jk grid4 nofinalgrid
|  5> 
|  6> *xyz -2 1
|  7> C       -5.371545   -2.136160    0.336278 
|  8> C       -4.697063   -0.763740    0.262018 
|  9> O       -4.978822    0.003309   -0.707502 
| 10> O       -3.902613   -0.505987    1.212120 
| 11> C        2.635057   -0.678655    2.396830 
| 12> S        2.063323    1.004526    1.938677 
| 13> C        2.314937   -2.581636   -1.299530 
| 14> S        0.864820   -2.286095   -0.358137 
| 15> C        3.240953   -1.614445   -1.507242 
| 16> S        2.972432   -0.000985   -0.910324 
| 17> C       -0.891125    2.751712   -1.395439 
| 18> S        0.528832    2.543841   -0.360303 
| 19> C       -1.489329    1.702419   -2.015371 
| 20> S       -0.828634    0.070077   -1.896647 
| 21> W        0.627788    0.033115    0.107608 
| 22> O       -2.320739    1.386691    1.151938 
| 23> C       -0.689027   -0.837880    1.297595 
| 24> C       -0.745952    0.472117    1.605961 
| 25> H       -4.850130   -2.819358   -0.346804 
| 26> H       -5.250819   -2.525653    1.350280 
| 27> H        1.778524   -1.298220    2.681124 
| 28> H        3.117621   -1.144410    1.536216 
| 29> H       -3.029141    0.618126    1.100277 
| 30> H       -2.171098    1.699602    0.245945 
| 31> H       -1.140104   -1.782909    1.572954 
| 32> H       -0.640990    1.084034    2.487860 
| 33> H       -1.256518    3.767648   -1.529996 
| 34> H       -2.404891    1.822493   -2.590760 
| 35> H        3.371580   -0.608085    3.204035 
| 36> H        2.423780   -3.583247   -1.710229 
| 37> H        4.191166   -1.850203   -1.981855 
| 38> H       -6.431678   -2.086675    0.066661 
| 39> *
| 40> 
| 41> %maxcore 5000
| 42> 
| 43> %pal
| 44> nprocs = 24
| 45> end
| 46> 
| 47> 
| 48>                          ****END OF INPUT****
================================================================================

                       ****************************
                       * Single Point Calculation *
                       ****************************

---------------------------------
CARTESIAN COORDINATES (ANGSTROEM)
---------------------------------
  C     -5.371545   -2.136160    0.336278
  C     -4.697063   -0.763740    0.262018
  O     -4.978822    0.003309   -0.707502
  O     -3.902613   -0.505987    1.212120
  C      2.635057   -0.678655    2.396830
  S      2.063323    1.004526    1.938677
  C      2.314937   -2.581636   -1.299530
  S      0.864820   -2.286095   -0.358137
  C      3.240953   -1.614445   -1.507242
  S      2.972432   -0.000985   -0.910324
  C     -0.891125    2.751712   -1.395439
  S      0.528832    2.543841   -0.360303
  C     -1.489329    1.702419   -2.015371
  S     -0.828634    0.070077   -1.896647
  W      0.627788    0.033115    0.107608
  O     -2.320739    1.386691    1.151938
  C     -0.689027   -0.837880    1.297595
  C     -0.745952    0.472117    1.605961
  H     -4.850130   -2.819358   -0.346804
  H     -5.250819   -2.525653    1.350280
  H      1.778524   -1.298220    2.681124
  H      3.117621   -1.144410    1.536216
  H     -3.029141    0.618126    1.100277
  H     -2.171098    1.699602    0.245945
  H     -1.140104   -1.782909    1.572954
  H     -0.640990    1.084034    2.487860
  H     -1.256518    3.767648   -1.529996
  H     -2.404891    1.822493   -2.590760
  H      3.371580   -0.608085    3.204035
  H      2.423780   -3.583247   -1.710229
  H      4.191166   -1.850203   -1.981855
  H     -6.431678   -2.086675    0.066661

----------------------------
CARTESIAN COORDINATES (A.U.)
----------------------------
  NO LB      ZA    FRAG     MASS         X           Y           Z
   0 C     6.0000    0    12.011  -10.150749   -4.036757    0.635473
   1 C     6.0000    0    12.011   -8.876163   -1.443259    0.495142
   2 O     8.0000    0    15.999   -9.408610    0.006253   -1.336985
   3 O     8.0000    0    15.999   -7.374870   -0.956177    2.290575
   4 C     6.0000    0    12.011    4.979536   -1.282472    4.529352
   5 S    16.0000    0    32.060    3.899115    1.898279    3.663569
   6 C     6.0000    0    12.011    4.374597   -4.878585   -2.455756
   7 S    16.0000    0    32.060    1.634273   -4.320093   -0.676781
   8 C     6.0000    0    12.011    6.124514   -3.050859   -2.848275
   9 S    16.0000    0    32.060    5.617082   -0.001861   -1.720263
  10 C     6.0000    0    12.011   -1.683982    5.199982   -2.636998
  11 S    16.0000    0    32.060    0.999348    4.807163   -0.680874
  12 C     6.0000    0    12.011   -2.814424    3.217106   -3.808499
  13 S    16.0000    0    32.060   -1.565891    0.132426   -3.584143
  14 W    14.0000*   0   183.850    1.186347    0.062578    0.203350
  15 O     8.0000    0    15.999   -4.385561    2.620466    2.176847
  16 C     6.0000    0    12.011   -1.302072   -1.583364    2.452099
  17 C     6.0000    0    12.011   -1.409645    0.892172    3.034826
  18 H     1.0000    0     1.008   -9.165417   -5.327814   -0.655365
  19 H     1.0000    0     1.008   -9.922610   -4.772792    2.551659
  20 H     1.0000    0     1.008    3.360923   -2.453280    5.066590
  21 H     1.0000    0     1.008    5.891450   -2.162621    2.903028
  22 H     1.0000    0     1.008   -5.724247    1.168089    2.079222
  23 H     1.0000    0     1.008   -4.102781    3.211782    0.464769
  24 H     1.0000    0     1.008   -2.154484   -3.369210    2.972452
  25 H     1.0000    0     1.008   -1.211296    2.048527    4.701374
  26 H     1.0000    0     1.008   -2.374475    7.119823   -2.891273
  27 H     1.0000    0     1.008   -4.544585    3.444013   -4.895827
  28 H     1.0000    0     1.008    6.371363   -1.149114    6.054749
  29 H     1.0000    0     1.008    4.580280   -6.771356   -3.231864
  30 H     1.0000    0     1.008    7.920156   -3.496377   -3.745163
  31 H     1.0000    0     1.008  -12.154110   -3.943244    0.125971
* core charge reduced due to ECP

--------------------------------
INTERNAL COORDINATES (ANGSTROEM)
--------------------------------
 C      0   0   0     0.000000000000     0.00000000     0.00000000
 C      1   0   0     1.531005281612     0.00000000     0.00000000
 O      2   1   0     1.267959515474   118.78191294     0.00000000
 O      2   1   3     1.265022221905   115.01712807   179.38154573
 C      4   2   1     6.646388572091   138.27270964    98.17807231
 S      5   4   2     1.835723894524    67.99661809    97.76719036
 C      5   4   2     4.169759075817    77.19276986   351.29520247
 S      7   5   4     1.753968237118    60.71109240   347.52668332
 C      7   5   4     1.355030751563    75.97587171   127.24888058
 S      9   7   5     1.741168515040   120.23059556   315.02170523
 C     10   9   7     4.768621397142   128.68113036   310.80172502
 S     11  10   9     1.769461718429    38.96787593   157.59188318
 C     11  10   9     1.357637473735    87.55263929     3.92311451
 S     13  11  10     1.764979794832   121.27483835    15.75310260
 W      8   7   5     2.377359375052   110.60706142    57.46551224
 O      4   2   1     2.467423197728   122.72416531   166.93488311
 C     15   8   7     1.977044029459    75.79141844   192.49872301
 C     17  15   8     1.347004894419    74.78089788   176.21159007
 H      1   2   3     1.097831557277   108.56840867    79.80396806
 H      1   2   3     1.092922513323   108.40917165   196.46596755
 H      5   4   2     1.094683811769    44.87454429   255.54437933
 H      5   4   2     1.091078453237   107.79059777   353.48311093
 H     16   4   2     1.046515366227     5.05835422     8.63852796
 H     16   4   2     0.970118054080   111.65924194   340.78923006
 H     17  15   8     1.082761677218   144.59337185   355.64465331
 H     18  17  15     1.078519949994   137.29529246   235.53952165
 H     11  10   9     1.087999810108   145.45666243   215.60942024
 H     13  11  10     1.088000019596   121.80139811   194.56846926
 H      5   4   2     1.095000532627   142.31155083   191.59991669
 H      7   5   4     1.088000488314   138.33839949   250.09906610
 H      9   7   5     1.088000036628   120.60026945   130.45995011
 H      1   2   3     1.094999575161   111.96665919   318.72181651

---------------------------
INTERNAL COORDINATES (A.U.)
---------------------------
 C      0   0   0     0.000000000000     0.00000000     0.00000000
 C      1   0   0     2.893180691834     0.00000000     0.00000000
 O      2   1   0     2.396096233146   118.78191294     0.00000000
 O      2   1   3     2.390545552725   115.01712807   179.38154573
 C      4   2   1    12.559854180876   138.27270964    98.17807231
 S      5   4   2     3.469015418146    67.99661809    97.76719036
 C      5   4   2     7.879702697727    77.19276986   351.29520247
 S      7   5   4     3.314519615750    60.71109240   347.52668332
 C      7   5   4     2.560637023495    75.97587171   127.24888058
 S      9   7   5     3.290331646431   120.23059556   315.02170523
 C     10   9   7     9.011388476956   128.68113036   310.80172502
 S     11  10   9     3.343798052289    38.96787593   157.59188318
 C     11  10   9     2.565563014507    87.55263929     3.92311451
 S     13  11  10     3.335328444137   121.27483835    15.75310260
 W      8   7   5     4.492558140759   110.60706142    57.46551224
 O      4   2   1     4.662754100189   122.72416531   166.93488311
 C     15   8   7     3.736071770381    75.79141844   192.49872301
 C     17  15   8     2.545470351504    74.78089788   176.21159007
 H      1   2   3     2.074600984430   108.56840867    79.80396806
 H      1   2   3     2.065324235778   108.40917165   196.46596755
 H      5   4   2     2.068652607481    44.87454429   255.54437933
 H      5   4   2     2.061839467239   107.79059777   353.48311093
 H     16   4   2     1.977627437110     5.05835422     8.63852796
 H     16   4   2     1.833257439783   111.65924194   340.78923006
 H     17  15   8     2.046123038246   144.59337185   355.64465331
 H     18  17  15     2.038107335458   137.29529246   235.53952165
 H     11  10   9     2.056021674862   145.45666243   215.60942024
 H     13  11  10     2.056022070737   121.80139811   194.56846926
 H      5   4   2     2.069251123163   142.31155083   191.59991669
 H      7   5   4     2.056022956486   138.33839949   250.09906610
 H      9   7   5     2.056022102923   120.60026945   130.45995011
 H      1   2   3     2.069249313815   111.96665919   318.72181651

---------------------
BASIS SET INFORMATION
---------------------
There are 5 groups of distinct atoms

 Group   1 Type C   : 12s6p3d1f contracted to 6s3p3d1f pattern {621111/411/111/1}
 Group   2 Type O   : 12s7p3d1f contracted to 6s4p3d1f pattern {621111/4111/111/1}
 Group   3 Type S   : 15s10p4d1f contracted to 6s6p4d1f pattern {732111/511111/1111/1}
 Group   4 Type W   : 8s8p6d2f1g contracted to 6s5p3d2f1g pattern {311111/41111/411/11/1}
 Group   5 Type H   : 5s3p1d contracted to 3s3p1d pattern {311/111/1}

Atom   0C    basis set group =>   1
Atom   1C    basis set group =>   1
Atom   2O    basis set group =>   2
Atom   3O    basis set group =>   2
Atom   4C    basis set group =>   1
Atom   5S    basis set group =>   3
Atom   6C    basis set group =>   1
Atom   7S    basis set group =>   3
Atom   8C    basis set group =>   1
Atom   9S    basis set group =>   3
Atom  10C    basis set group =>   1
Atom  11S    basis set group =>   3
Atom  12C    basis set group =>   1
Atom  13S    basis set group =>   3
Atom  14W    basis set group =>   4
Atom  15O    basis set group =>   2
Atom  16C    basis set group =>   1
Atom  17C    basis set group =>   1
Atom  18H    basis set group =>   5
Atom  19H    basis set group =>   5
Atom  20H    basis set group =>   5
Atom  21H    basis set group =>   5
Atom  22H    basis set group =>   5
Atom  23H    basis set group =>   5
Atom  24H    basis set group =>   5
Atom  25H    basis set group =>   5
Atom  26H    basis set group =>   5
Atom  27H    basis set group =>   5
Atom  28H    basis set group =>   5
Atom  29H    basis set group =>   5
Atom  30H    basis set group =>   5
Atom  31H    basis set group =>   5
----------------------------------
AUXILIARY/JK BASIS SET INFORMATION
----------------------------------
There are 5 groups of distinct atoms

 Group   1 Type C   : 14s10p6d2f1g contracted to 10s8p5d1f1g pattern {5111111111/31111111/21111/2/1}
 Group   2 Type O   : 14s10p6d2f1g contracted to 10s8p4d2f1g pattern {5111111111/31111111/3111/11/1}
 Group   3 Type S   : 16s12p10d4f1g contracted to 13s11p9d4f1g pattern {4111111111111/21111111111/211111111/1111/1}
 Group   4 Type W   : 13s12p11d9f5g3h2i contracted to 11s9p9d7f4g3h2i pattern {31111111111/411111111/311111111/3111111/2111/111/11}
 Group   5 Type H   : 4s2p2d contracted to 2s2p2d pattern {31/11/11}

Atom   0C    basis set group =>   1
Atom   1C    basis set group =>   1
Atom   2O    basis set group =>   2
Atom   3O    basis set group =>   2
Atom   4C    basis set group =>   1
Atom   5S    basis set group =>   3
Atom   6C    basis set group =>   1
Atom   7S    basis set group =>   3
Atom   8C    basis set group =>   1
Atom   9S    basis set group =>   3
Atom  10C    basis set group =>   1
Atom  11S    basis set group =>   3
Atom  12C    basis set group =>   1
Atom  13S    basis set group =>   3
Atom  14W    basis set group =>   4
Atom  15O    basis set group =>   2
Atom  16C    basis set group =>   1
Atom  17C    basis set group =>   1
Atom  18H    basis set group =>   5
Atom  19H    basis set group =>   5
Atom  20H    basis set group =>   5
Atom  21H    basis set group =>   5
Atom  22H    basis set group =>   5
Atom  23H    basis set group =>   5
Atom  24H    basis set group =>   5
Atom  25H    basis set group =>   5
Atom  26H    basis set group =>   5
Atom  27H    basis set group =>   5
Atom  28H    basis set group =>   5
Atom  29H    basis set group =>   5
Atom  30H    basis set group =>   5
Atom  31H    basis set group =>   5
-------------------------
ECP PARAMETER INFORMATION
-------------------------

 Group 1, Type W  ECP Def2-ECP (replacing 60 core electrons, lmax=3)

Atom  14W    ECP group =>   1



           ************************************************************
           *        Program running with 24 parallel MPI-processes    *
           *              working on a common directory               *
           ************************************************************
------------------------------------------------------------------------------
                           ORCA GTO INTEGRAL CALCULATION
------------------------------------------------------------------------------

                         BASIS SET STATISTICS AND STARTUP INFO

 # of primitive gaussian shells          ...  568
 # of primitive gaussian functions       ... 1344
 # of contracted shells                  ...  359
 # of contracted basis functions         ... 1005
 Highest angular momentum                ...    4
 Maximum contraction depth               ...    7
 Integral package used                   ... LIBINT
 Integral threshhold            Thresh   ...  1.000e-10
 Primitive cut-off              TCut     ...  1.000e-11


------------------------------ INTEGRAL EVALUATION ----------------------------


 * One electron integrals 

   ECP integrals                         ... done
 Pre-screening matrix                    ... done
 Shell pair data                         ... done (   0.015 sec)



           ************************************************************
           *        Program running with 24 parallel MPI-processes    *
           *              working on a common directory               *
           ************************************************************
-------------------------------------------------------------------------------
                                 ORCA SCF
-------------------------------------------------------------------------------

------------
SCF SETTINGS
------------
Hamiltonian:
 Density Functional     Method          .... DFT(GTOs)
 Exchange Functional    Exchange        .... WB97M-V
 Correlation Functional Correlation     .... WB97M-V
 Gradients option       PostSCFGGA      .... off
 Hybrid DFT is turned on
   Fraction HF Exchange ScalHFX         ....  0.150000
   Scaling of DF-GGA-X  ScalDFX         ....  0.000000
   Scaling of DF-GGA-C  ScalDFC         ....  1.000000
   Scaling of DF-LDA-C  ScalLDAC        ....  1.000000
   Perturbative correction              ....  0.000000
   Density functional embedding theory  .... OFF
 Long-range corrected/Screened/Range-Separated Hybrid DFT is turned on
   Amount of maximum screened exact exchange              ....  0.850000
   Range separation parameter mu (erf(mu*r12)/r12)        ....  0.300000
   NL short-range parameter             ....  6.000000
   NL long-range parameter              ....  0.010000


General Settings:
 Integral files         IntName         .... TMB06_T1
 Hartree-Fock type      HFTyp           .... RHF
 Total Charge           Charge          ....   -2
 Multiplicity           Mult            ....    1
 Number of Electrons    NEL             ....  188
 Basis Dimension        Dim             .... 1005
 Nuclear Repulsion      ENuc            ....   2319.0967045002 Eh

Convergence Acceleration:
 DIIS                   CNVDIIS         .... on
   Start iteration      DIISMaxIt       ....    12
   Startup error        DIISStart       ....  0.200000
   # of expansion vecs  DIISMaxEq       ....     5
   Bias factor          DIISBfac        ....   1.050
   Max. coefficient     DIISMaxC        ....  10.000
 Newton-Raphson         CNVNR           .... off
 SOSCF                  CNVSOSCF        .... off
 Level Shifting         CNVShift        .... on
   Level shift para.    LevelShift      ....    0.2500
   Turn off err/grad.   ShiftErr        ....    0.0010
 Zerner damping         CNVZerner       .... off
 Static damping         CNVDamp         .... on
   Fraction old density DampFac         ....    0.7000
   Max. Damping (<1)    DampMax         ....    0.9800
   Min. Damping (>=0)   DampMin         ....    0.0000
   Turn off err/grad.   DampErr         ....    0.1000
 Fernandez-Rico         CNVRico         .... off

SCF Procedure:
 Maximum # iterations   MaxIter         ....   125
 SCF integral mode      SCFMode         .... Direct
   Integral package                     .... LIBINT
 Reset frequency        DirectResetFreq ....    20
 Integral Threshold     Thresh          ....  1.000e-10 Eh
 Primitive CutOff       TCut            ....  1.000e-11 Eh

Convergence Tolerance:
 Convergence Check Mode ConvCheckMode   .... Total+1el-Energy
 Convergence forced     ConvForced      .... 0
 Energy Change          TolE            ....  1.000e-06 Eh
 1-El. energy change                    ....  1.000e-03 Eh
 DIIS Error             TolErr          ....  1.000e-06


Diagonalization of the overlap matrix:
Smallest eigenvalue                        ... 1.211e-06
Time for diagonalization                   ...    0.167 sec
Threshold for overlap eigenvalues          ... 1.000e-08
Number of eigenvalues below threshold      ... 0
Time for construction of square roots      ...    0.124 sec
Total time needed                          ...    0.294 sec

-------------------
DFT GRID GENERATION
-------------------

General Integration Accuracy     IntAcc      ...  4.670
Radial Grid Type                 RadialGrid  ... Gauss-Chebyshev
Angular Grid (max. acc.)         AngularGrid ... Lebedev-302
Angular grid pruning method      GridPruning ... 3 (G Style)
Weight generation scheme         WeightScheme... Becke
Basis function cutoff            BFCut       ...    1.0000e-10
Integration weight cutoff        WCut        ...    1.0000e-14
Grids for H and He will be reduced by one unit

# of grid points (after initial pruning)     ... 167942 (   0.0 sec)
# of grid points (after weights+screening)   ... 149580 (   0.1 sec)
nearest neighbour list constructed           ...    0.0 sec
Grid point re-assignment to atoms done       ...    0.0 sec
Grid point division into batches done        ...    0.5 sec
Reduced shell lists constructed in    0.6 sec

Total number of grid points                  ...   149580
Total number of batches                      ...     2352
Average number of points per batch           ...       63
Average number of grid points per atom       ...     4674
Average number of shells per batch           ...   162.62 (45.30%)
Average number of basis functions per batch  ...   436.03 (43.39%)
Average number of large shells per batch     ...   110.99 (68.25%)
Average number of large basis fcns per batch ...   300.79 (68.98%)
Maximum spatial batch extension              ...   4.35,  4.59,  3.75 au
Average spatial batch extension              ...   0.05,  0.05,  0.05 au

Time for grid setup =    0.859 sec

------------------------------
INITIAL GUESS: MODEL POTENTIAL
------------------------------
Loading Hartree-Fock densities                     ... done
  calling /sw/apps/orca/orca_4_2_0_linux_x86-64_openmpi314/orca TMB06_T1_atom74.inp > TMB06_T1_atom74.out in order to generate an atomic fitting density for atom 14 (W  with ECP) on-the-fly... 
    atom 14 (W ), assumed electronic state with S=5: 1s2 2s2 2p6 3s2 3p6 4s2 3d10 4p6 5s2 4d10 5p6 6s2 4f14 5d4           ... done
Calculating cut-offs                               ... done
Setting up the integral package                    ... done
Initializing the effective Hamiltonian             ... done
Starting the Coulomb interaction                   ... done (   0.1 sec)
Reading the grid                                   ... done
Mapping shells                                     ... done
Starting the XC term evaluation                    ... done (   0.5 sec)
  promolecular density results
     # of electrons  =    245.993959348
     EX              =   -523.924228922
     EC              =    -10.641596383
     EX+EC           =   -534.565825305
Transforming the Hamiltonian                       ... done (   0.1 sec)
Diagonalizing the Hamiltonian                      ... done (   0.1 sec)
Back transforming the eigenvectors                 ... done (   0.0 sec)
Now organizing SCF variables                       ... done
                      ------------------
                      INITIAL GUESS DONE (   3.3 sec)
                      ------------------
--------------
SCF ITERATIONS
--------------
ITER       Energy         Delta-E        Max-DP      RMS-DP      [F,P]     Damp
               ***  Starting incremental Fock matrix formation  ***
  0  -2634.9981282079   0.000000000000 0.99203850  0.00268750  0.3924554 0.7000
  1  -2635.3661397732  -0.368011565306 0.69221335  0.00194038  0.2696281 0.7000
                               ***Turning on DIIS***
  2  -2635.5303588377  -0.164219064492 0.43395773  0.00131250  0.1849659 0.7000
  3  -2635.6275476602  -0.097188822455 0.24723793  0.00091628  0.1286945 0.7000
  4  -2635.6965349334  -0.068987273170 0.56776341  0.00219888  0.0909074 0.0000
  5  -2635.8586162699  -0.162081336557 0.02484642  0.00017760  0.0042619 0.0000
  6  -2635.8595357550  -0.000919485053 0.01313369  0.00008954  0.0023273 0.0000
  7  -2635.8599653164  -0.000429561449 0.01209786  0.00007721  0.0021624 0.0000
  8  -2635.8601962328  -0.000230916432 0.01496713  0.00006087  0.0019343 0.0000
  9  -2635.8603674335  -0.000171200610 0.02030989  0.00008996  0.0009491 0.0000
 10  -2635.8604917016  -0.000124268123 0.01380490  0.00004122  0.0004271 0.0000
 11  -2635.8605115894  -0.000019887804 0.00823736  0.00003148  0.0002336 0.0000
 12  -2635.8605179711  -0.000006381700 0.00607161  0.00002264  0.0001394 0.0000
 13  -2635.8605197096  -0.000001738521 0.00687035  0.00001733  0.0000795 0.0000
                 **** Energy Check signals convergence ****

               *****************************************************
               *                     SUCCESS                       *
               *           SCF CONVERGED AFTER  14 CYCLES          *
               *****************************************************


Setting up the DFT-NL grid :

General Integration Accuracy     IntAcc      ...  4.340
Radial Grid Type                 RadialGrid  ... Gauss-Chebyshev
Angular Grid (max. acc.)         AngularGrid ... Lebedev-110
Angular grid pruning method      GridPruning ... 3 (G Style)
Weight generation scheme         WeightScheme... Becke
Basis function cutoff            BFCut       ...    1.0000e-10
Integration weight cutoff        WCut        ...    1.0000e-14
Grids for H and He will be reduced by one unit

# of grid points (after initial pruning)     ...  43728 (   0.0 sec)
# of grid points (after weights+screening)   ...  39674 (   0.0 sec)
nearest neighbour list constructed           ...    0.0 sec
Grid point re-assignment to atoms done       ...    0.0 sec
Grid point division into batches done        ...    0.0 sec
Reduced shell lists constructed in    0.1 sec

Total number of grid points                  ...    39674
Total number of batches                      ...      635
Average number of points per batch           ...       62
Average number of grid points per atom       ...     1240
Average number of shells per batch           ...   166.00 (46.24%)
Average number of basis functions per batch  ...   447.00 (44.48%)
Average number of large shells per batch     ...   114.07 (68.72%)
Average number of large basis fcns per batch ...   308.79 (69.08%)
Maximum spatial batch extension              ...   4.00,  5.72,  3.67 au
Average spatial batch extension              ...   0.07,  0.08,  0.07 au

Final grid set up in    0.1 sec

-------------------------------------------------------------------------------
                         DFT-NL dispersion correction                          
-------------------------------------------------------------------------------

SC Energy -2635.860520122 
NL    Energy 0.702315469 
SC+NL Energy -2635.158204653 
NL done in    0.6 sec
-------------------------------------------------------------------------------

----------------
TOTAL SCF ENERGY
----------------

Total Energy       :        -2635.15820465 Eh          -71706.30023 eV

Components:
Nuclear Repulsion  :         2319.09670450 Eh           63105.82957 eV
Electronic Energy  :        -4954.25490915 Eh         -134812.12979 eV
One Electron Energy:        -8319.34307308 Eh         -226380.83400 eV
Two Electron Energy:         3365.08816393 Eh           91568.70420 eV

Virial components:
Potential Energy   :        -5220.76486700 Eh         -142064.23444 eV
Kinetic Energy     :         2585.60666235 Eh           70357.93421 eV
Virial Ratio       :            2.01916438


DFT components:
N(Alpha)           :       93.999910428388 electrons
N(Beta)            :       93.999910428388 electrons
N(Total)           :      187.999820856775 electrons
E(X)               :     -153.311375177097 Eh       
E(C)               :       -7.015254211523 Eh       
NL Energy, E(C,NL) :        0.702315468613 Eh       
E(XC)              :     -159.624313920007 Eh       
DFET-embed. en.    :        0.000000000000 Eh       

---------------
SCF CONVERGENCE
---------------

  Last Energy change         ...   -4.1248e-07  Tolerance :   1.0000e-06
  Last MAX-Density change    ...    1.9957e-02  Tolerance :   1.0000e-05
  Last RMS-Density change    ...    3.3905e-05  Tolerance :   1.0000e-06
  Last DIIS Error            ...    3.7450e-05  Tolerance :   1.0000e-06

             **** THE GBW FILE WAS UPDATED (TMB06_T1.gbw) ****
             **** DENSITY FILE WAS UPDATED (TMB06_T1.scfp) ****
             **** ENERGY FILE WAS UPDATED (TMB06_T1.en.tmp) ****
             **** THE GBW FILE WAS UPDATED (TMB06_T1.gbw) ****
             **** DENSITY FILE WAS UPDATED (TMB06_T1.scfp) ****
----------------
ORBITAL ENERGIES
----------------

  NO   OCC          E(Eh)            E(eV) 
   0   2.0000     -88.959628     -2420.7146 
   1   2.0000     -88.939603     -2420.1696 
   2   2.0000     -88.934625     -2420.0342 
   3   2.0000     -88.925992     -2419.7993 
   4   2.0000     -88.923755     -2419.7384 
   5   2.0000     -19.097283      -519.6635 
   6   2.0000     -19.058083      -518.5968 
   7   2.0000     -19.043093      -518.1889 
   8   2.0000     -10.214072      -277.9390 
   9   2.0000     -10.161172      -276.4996 
  10   2.0000     -10.154273      -276.3118 
  11   2.0000     -10.152575      -276.2656 
  12   2.0000     -10.145984      -276.0863 
  13   2.0000     -10.143220      -276.0111 
  14   2.0000     -10.142060      -275.9795 
  15   2.0000     -10.130462      -275.6639 
  16   2.0000     -10.113809      -275.2107 
  17   2.0000      -7.888037      -214.6444 
  18   2.0000      -7.868594      -214.1153 
  19   2.0000      -7.863297      -213.9712 
  20   2.0000      -7.854734      -213.7382 
  21   2.0000      -7.852726      -213.6835 
  22   2.0000      -5.797464      -157.7570 
  23   2.0000      -5.793611      -157.6522 
  24   2.0000      -5.792396      -157.6191 
  25   2.0000      -5.778309      -157.2358 
  26   2.0000      -5.773866      -157.1149 
  27   2.0000      -5.773128      -157.0948 
  28   2.0000      -5.772836      -157.0869 
  29   2.0000      -5.769101      -156.9852 
  30   2.0000      -5.767001      -156.9281 
  31   2.0000      -5.764746      -156.8667 
  32   2.0000      -5.763059      -156.8208 
  33   2.0000      -5.760396      -156.7483 
  34   2.0000      -5.759188      -156.7155 
  35   2.0000      -5.758423      -156.6946 
  36   2.0000      -5.755149      -156.6056 
  37   2.0000      -2.904302       -79.0301 
  38   2.0000      -1.543272       -41.9946 
  39   2.0000      -1.538219       -41.8571 
  40   2.0000      -1.533953       -41.7410 
  41   2.0000      -0.933157       -25.3925 
  42   2.0000      -0.894827       -24.3495 
  43   2.0000      -0.836498       -22.7623 
  44   2.0000      -0.723150       -19.6779 
  45   2.0000      -0.702806       -19.1243 
  46   2.0000      -0.659214       -17.9381 
  47   2.0000      -0.645994       -17.5784 
  48   2.0000      -0.631418       -17.1818 
  49   2.0000      -0.620493       -16.8845 
  50   2.0000      -0.599149       -16.3037 
  51   2.0000      -0.552507       -15.0345 
  52   2.0000      -0.532362       -14.4863 
  53   2.0000      -0.501760       -13.6536 
  54   2.0000      -0.451396       -12.2831 
  55   2.0000      -0.434595       -11.8259 
  56   2.0000      -0.425026       -11.5656 
  57   2.0000      -0.408696       -11.1212 
  58   2.0000      -0.377528       -10.2731 
  59   2.0000      -0.370881       -10.0922 
  60   2.0000      -0.357678        -9.7329 
  61   2.0000      -0.352805        -9.6003 
  62   2.0000      -0.332183        -9.0392 
  63   2.0000      -0.324855        -8.8398 
  64   2.0000      -0.322080        -8.7642 
  65   2.0000      -0.316794        -8.6204 
  66   2.0000      -0.312269        -8.4973 
  67   2.0000      -0.300055        -8.1649 
  68   2.0000      -0.280570        -7.6347 
  69   2.0000      -0.268300        -7.3008 
  70   2.0000      -0.260562        -7.0903 
  71   2.0000      -0.252650        -6.8749 
  72   2.0000      -0.238323        -6.4851 
  73   2.0000      -0.236986        -6.4487 
  74   2.0000      -0.226893        -6.1741 
  75   2.0000      -0.219628        -5.9764 
  76   2.0000      -0.210149        -5.7185 
  77   2.0000      -0.197943        -5.3863 
  78   2.0000      -0.191043        -5.1985 
  79   2.0000      -0.172635        -4.6976 
  80   2.0000      -0.163261        -4.4426 
  81   2.0000      -0.157226        -4.2783 
  82   2.0000      -0.141531        -3.8513 
  83   2.0000      -0.135828        -3.6961 
  84   2.0000      -0.132140        -3.5957 
  85   2.0000      -0.129841        -3.5331 
  86   2.0000      -0.114769        -3.1230 
  87   2.0000      -0.114402        -3.1130 
  88   2.0000      -0.111778        -3.0416 
  89   2.0000      -0.103841        -2.8256 
  90   2.0000      -0.086623        -2.3571 
  91   2.0000      -0.078160        -2.1268 
  92   2.0000      -0.062019        -1.6876 
  93   2.0000      -0.033748        -0.9183 
  94   0.0000       0.178058         4.8452 
  95   0.0000       0.187990         5.1155 
  96   0.0000       0.191529         5.2118 
  97   0.0000       0.193954         5.2778 
  98   0.0000       0.203111         5.5269 
  99   0.0000       0.208300         5.6681 
 100   0.0000       0.212522         5.7830 
 101   0.0000       0.216462         5.8902 
 102   0.0000       0.222428         6.0526 
 103   0.0000       0.226543         6.1645 
 104   0.0000       0.231906         6.3105 
 105   0.0000       0.234349         6.3770 
 106   0.0000       0.240601         6.5471 
 107   0.0000       0.242783         6.6064 
 108   0.0000       0.245445         6.6789 
 109   0.0000       0.248729         6.7683 
 110   0.0000       0.251687         6.8487 
 111   0.0000       0.255414         6.9502 
 112   0.0000       0.259944         7.0734 
 113   0.0000       0.266740         7.2584 
 114   0.0000       0.270611         7.3637 
 115   0.0000       0.274428         7.4676 
 116   0.0000       0.278414         7.5760 
 117   0.0000       0.279853         7.6152 
 118   0.0000       0.287722         7.8293 
 119   0.0000       0.292974         7.9722 
 120   0.0000       0.295023         8.0280 
 121   0.0000       0.297499         8.0953 
 122   0.0000       0.304860         8.2957 
 123   0.0000       0.307588         8.3699 
 124   0.0000       0.313463         8.5298 
 125   0.0000       0.315497         8.5851 
 126   0.0000       0.317519         8.6401 
 127   0.0000       0.320360         8.7174 
 128   0.0000       0.321386         8.7454 
 129   0.0000       0.330003         8.9798 
 130   0.0000       0.332553         9.0492 
 131   0.0000       0.336461         9.1556 
 132   0.0000       0.338666         9.2156 
 133   0.0000       0.341431         9.2908 
 134   0.0000       0.347533         9.4568 
 135   0.0000       0.352466         9.5911 
 136   0.0000       0.355882         9.6840 
 137   0.0000       0.358860         9.7651 
 138   0.0000       0.361522         9.8375 
 139   0.0000       0.362395         9.8613 
 140   0.0000       0.363341         9.8870 
 141   0.0000       0.371604        10.1119 
 142   0.0000       0.372983        10.1494 
 143   0.0000       0.375890        10.2285 
 144   0.0000       0.378031        10.2867 
 145   0.0000       0.386379        10.5139 
 146   0.0000       0.387389        10.5414 
 147   0.0000       0.392147        10.6709 
 148   0.0000       0.394011        10.7216 
 149   0.0000       0.394357        10.7310 
 150   0.0000       0.398362        10.8400 
 151   0.0000       0.401014        10.9122 
 152   0.0000       0.404985        11.0202 
 153   0.0000       0.406723        11.0675 
 154   0.0000       0.410394        11.1674 
 155   0.0000       0.412193        11.2164 
 156   0.0000       0.419236        11.4080 
 157   0.0000       0.421176        11.4608 
 158   0.0000       0.430066        11.7027 
 159   0.0000       0.431596        11.7443 
 160   0.0000       0.432753        11.7758 
 161   0.0000       0.437171        11.8960 
 162   0.0000       0.438518        11.9327 
 163   0.0000       0.442695        12.0463 
 164   0.0000       0.445698        12.1281 
 165   0.0000       0.449274        12.2254 
 166   0.0000       0.452992        12.3265 
 167   0.0000       0.454651        12.3717 
 168   0.0000       0.456153        12.4126 
 169   0.0000       0.460396        12.5280 
 170   0.0000       0.461210        12.5502 
 171   0.0000       0.464410        12.6372 
 172   0.0000       0.466949        12.7063 
 173   0.0000       0.468519        12.7491 
 174   0.0000       0.472657        12.8616 
 175   0.0000       0.476995        12.9797 
 176   0.0000       0.477371        12.9899 
 177   0.0000       0.481751        13.1091 
 178   0.0000       0.484417        13.1817 
 179   0.0000       0.486643        13.2422 
 180   0.0000       0.487689        13.2707 
 181   0.0000       0.492889        13.4122 
 182   0.0000       0.495453        13.4820 
 183   0.0000       0.502230        13.6664 
 184   0.0000       0.502665        13.6782 
 185   0.0000       0.502994        13.6872 
 186   0.0000       0.509114        13.8537 
 187   0.0000       0.512838        13.9550 
 188   0.0000       0.514093        13.9892 
 189   0.0000       0.517921        14.0934 
 190   0.0000       0.520246        14.1566 
 191   0.0000       0.521036        14.1781 
 192   0.0000       0.523961        14.2577 
 193   0.0000       0.525527        14.3003 
 194   0.0000       0.530229        14.4283 
 195   0.0000       0.531841        14.4721 
 196   0.0000       0.536756        14.6059 
 197   0.0000       0.538518        14.6538 
 198   0.0000       0.543116        14.7789 
 199   0.0000       0.543584        14.7917 
 200   0.0000       0.544118        14.8062 
 201   0.0000       0.547336        14.8938 
 202   0.0000       0.550690        14.9850 
 203   0.0000       0.552003        15.0208 
 204   0.0000       0.556671        15.1478 
 205   0.0000       0.560167        15.2429 
 206   0.0000       0.562253        15.2997 
 207   0.0000       0.565122        15.3778 
 208   0.0000       0.567330        15.4378 
 209   0.0000       0.571820        15.5600 
 210   0.0000       0.572878        15.5888 
 211   0.0000       0.575785        15.6679 
 212   0.0000       0.578117        15.7314 
 213   0.0000       0.579730        15.7753 
 214   0.0000       0.583581        15.8800 
 215   0.0000       0.588321        16.0090 
 216   0.0000       0.589427        16.0391 
 217   0.0000       0.590179        16.0596 
 218   0.0000       0.592656        16.1270 
 219   0.0000       0.597286        16.2530 
 220   0.0000       0.602414        16.3925 
 221   0.0000       0.608110        16.5475 
 222   0.0000       0.609114        16.5748 
 223   0.0000       0.612781        16.6746 
 224   0.0000       0.614686        16.7265 
 225   0.0000       0.619838        16.8667 
 226   0.0000       0.622109        16.9284 
 227   0.0000       0.623446        16.9648 
 228   0.0000       0.626511        17.0482 
 229   0.0000       0.629660        17.1339 
 230   0.0000       0.633445        17.2369 
 231   0.0000       0.635779        17.3004 
 232   0.0000       0.641908        17.4672 
 233   0.0000       0.643355        17.5066 
 234   0.0000       0.644819        17.5464 
 235   0.0000       0.647445        17.6179 
 236   0.0000       0.649807        17.6821 
 237   0.0000       0.654527        17.8106 
 238   0.0000       0.656160        17.8550 
 239   0.0000       0.663325        18.0500 
 240   0.0000       0.664082        18.0706 
 241   0.0000       0.667578        18.1657 
 242   0.0000       0.668310        18.1856 
 243   0.0000       0.670959        18.2577 
 244   0.0000       0.674483        18.3536 
 245   0.0000       0.677536        18.4367 
 246   0.0000       0.679078        18.4787 
 247   0.0000       0.681946        18.5567 
 248   0.0000       0.685875        18.6636 
 249   0.0000       0.687246        18.7009 
 250   0.0000       0.693170        18.8621 
 251   0.0000       0.693977        18.8841 
 252   0.0000       0.696575        18.9548 
 253   0.0000       0.702545        19.1172 
 254   0.0000       0.703573        19.1452 
 255   0.0000       0.706055        19.2127 
 256   0.0000       0.709928        19.3181 
 257   0.0000       0.711365        19.3572 
 258   0.0000       0.717950        19.5364 
 259   0.0000       0.722922        19.6717 
 260   0.0000       0.726019        19.7560 
 261   0.0000       0.729117        19.8403 
 262   0.0000       0.732047        19.9200 
 263   0.0000       0.736200        20.0330 
 264   0.0000       0.741455        20.1760 
 265   0.0000       0.742469        20.2036 
 266   0.0000       0.745211        20.2782 
 267   0.0000       0.747423        20.3384 
 268   0.0000       0.751758        20.4564 
 269   0.0000       0.755772        20.5656 
 270   0.0000       0.758136        20.6299 
 271   0.0000       0.759739        20.6735 
 272   0.0000       0.761903        20.7324 
 273   0.0000       0.767723        20.8908 
 274   0.0000       0.771437        20.9919 
 275   0.0000       0.775086        21.0912 
 276   0.0000       0.777228        21.1495 
 277   0.0000       0.782949        21.3051 
 278   0.0000       0.783552        21.3215 
 279   0.0000       0.789762        21.4905 
 280   0.0000       0.790896        21.5214 
 281   0.0000       0.798017        21.7151 
 282   0.0000       0.799216        21.7478 
 283   0.0000       0.801809        21.8183 
 284   0.0000       0.805694        21.9241 
 285   0.0000       0.810374        22.0514 
 286   0.0000       0.812921        22.1207 
 287   0.0000       0.820090        22.3158 
 288   0.0000       0.823419        22.4064 
 289   0.0000       0.824382        22.4326 
 290   0.0000       0.833123        22.6704 
 291   0.0000       0.836134        22.7524 
 292   0.0000       0.839509        22.8442 
 293   0.0000       0.842329        22.9209 
 294   0.0000       0.846276        23.0283 
 295   0.0000       0.849439        23.1144 
 296   0.0000       0.851422        23.1684 
 297   0.0000       0.854096        23.2411 
 298   0.0000       0.855942        23.2914 
 299   0.0000       0.859694        23.3935 
 300   0.0000       0.866350        23.5746 
 301   0.0000       0.870310        23.6824 
 302   0.0000       0.873003        23.7556 
 303   0.0000       0.874827        23.8053 
 304   0.0000       0.878426        23.9032 
 305   0.0000       0.885168        24.0867 
 306   0.0000       0.886405        24.1203 
 307   0.0000       0.889042        24.1921 
 308   0.0000       0.894930        24.3523 
 309   0.0000       0.897170        24.4132 
 310   0.0000       0.897802        24.4304 
 311   0.0000       0.900973        24.5167 
 312   0.0000       0.906281        24.6612 
 313   0.0000       0.909339        24.7444 
 314   0.0000       0.914194        24.8765 
 315   0.0000       0.918997        25.0072 
 316   0.0000       0.921531        25.0761 
 317   0.0000       0.924186        25.1484 
 318   0.0000       0.928279        25.2598 
 319   0.0000       0.930755        25.3271 
 320   0.0000       0.933819        25.4105 
 321   0.0000       0.936191        25.4750 
 322   0.0000       0.940363        25.5886 
 323   0.0000       0.942354        25.6428 
 324   0.0000       0.945486        25.7280 
 325   0.0000       0.946221        25.7480 
 326   0.0000       0.953558        25.9476 
 327   0.0000       0.954906        25.9843 
 328   0.0000       0.958582        26.0843 
 329   0.0000       0.961585        26.1661 
 330   0.0000       0.964206        26.2374 
 331   0.0000       0.966309        26.2946 
 332   0.0000       0.972219        26.4554 
 333   0.0000       0.974137        26.5076 
 334   0.0000       0.976934        26.5837 
 335   0.0000       0.978248        26.6195 
 336   0.0000       0.982165        26.7261 
 337   0.0000       0.985158        26.8075 
 338   0.0000       0.986107        26.8333 
 339   0.0000       0.993073        27.0229 
 340   0.0000       0.997098        27.1324 
 341   0.0000       0.999949        27.2100 
 342   0.0000       1.001343        27.2479 
 343   0.0000       1.005596        27.3637 
 344   0.0000       1.007733        27.4218 
 345   0.0000       1.014261        27.5994 
 346   0.0000       1.014973        27.6188 
 347   0.0000       1.017660        27.6919 
 348   0.0000       1.022509        27.8239 
 349   0.0000       1.025240        27.8982 
 350   0.0000       1.031118        28.0582 
 351   0.0000       1.034115        28.1397 
 352   0.0000       1.036155        28.1952 
 353   0.0000       1.039579        28.2884 
 354   0.0000       1.045335        28.4450 
 355   0.0000       1.050529        28.5863 
 356   0.0000       1.052646        28.6440 
 357   0.0000       1.059500        28.8305 
 358   0.0000       1.061555        28.8864 
 359   0.0000       1.064973        28.9794 
 360   0.0000       1.067761        29.0553 
 361   0.0000       1.073647        29.2154 
 362   0.0000       1.075382        29.2626 
 363   0.0000       1.078230        29.3401 
 364   0.0000       1.086678        29.5700 
 365   0.0000       1.087610        29.5954 
 366   0.0000       1.090459        29.6729 
 367   0.0000       1.099651        29.9230 
 368   0.0000       1.100930        29.9578 
 369   0.0000       1.106497        30.1093 
 370   0.0000       1.108108        30.1532 
 371   0.0000       1.115863        30.3642 
 372   0.0000       1.119789        30.4710 
 373   0.0000       1.122980        30.5578 
 374   0.0000       1.129203        30.7272 
 375   0.0000       1.134250        30.8645 
 376   0.0000       1.139341        31.0030 
 377   0.0000       1.142742        31.0956 
 378   0.0000       1.143593        31.1188 
 379   0.0000       1.150660        31.3111 
 380   0.0000       1.158171        31.5154 
 381   0.0000       1.160533        31.5797 
 382   0.0000       1.165596        31.7175 
 383   0.0000       1.175483        31.9865 
 384   0.0000       1.179614        32.0989 
 385   0.0000       1.180253        32.1163 
 386   0.0000       1.189482        32.3674 
 387   0.0000       1.191632        32.4260 
 388   0.0000       1.198208        32.6049 
 389   0.0000       1.201536        32.6955 
 390   0.0000       1.210690        32.9446 
 391   0.0000       1.218957        33.1695 
 392   0.0000       1.222711        33.2717 
 393   0.0000       1.224875        33.3305 
 394   0.0000       1.229163        33.4472 
 395   0.0000       1.236325        33.6421 
 396   0.0000       1.239925        33.7401 
 397   0.0000       1.243328        33.8327 
 398   0.0000       1.253529        34.1103 
 399   0.0000       1.256935        34.2029 
 400   0.0000       1.264135        34.3989 
 401   0.0000       1.265022        34.4230 
 402   0.0000       1.269998        34.5584 
 403   0.0000       1.281316        34.8664 
 404   0.0000       1.282635        34.9023 
 405   0.0000       1.291003        35.1300 
 406   0.0000       1.292382        35.1675 
 407   0.0000       1.295574        35.2544 
 408   0.0000       1.305111        35.5139 
 409   0.0000       1.311756        35.6947 
 410   0.0000       1.324253        36.0348 
 411   0.0000       1.331936        36.2438 
 412   0.0000       1.333465        36.2854 
 413   0.0000       1.338326        36.4177 
 414   0.0000       1.341419        36.5019 
 415   0.0000       1.347439        36.6657 
 416   0.0000       1.357834        36.9485 
 417   0.0000       1.364131        37.1199 
 418   0.0000       1.369199        37.2578 
 419   0.0000       1.383372        37.6435 
 420   0.0000       1.386823        37.7374 
 421   0.0000       1.391693        37.8699 
 422   0.0000       1.401111        38.1262 
 423   0.0000       1.403423        38.1891 
 424   0.0000       1.409465        38.3535 
 425   0.0000       1.414132        38.4805 
 426   0.0000       1.419499        38.6265 
 427   0.0000       1.421371        38.6775 
 428   0.0000       1.439777        39.1783 
 429   0.0000       1.442776        39.2599 
 430   0.0000       1.452006        39.5111 
 431   0.0000       1.458712        39.6936 
 432   0.0000       1.463367        39.8202 
 433   0.0000       1.465648        39.8823 
 434   0.0000       1.471001        40.0280 
 435   0.0000       1.481661        40.3181 
 436   0.0000       1.485807        40.4309 
 437   0.0000       1.494091        40.6563 
 438   0.0000       1.498682        40.7812 
 439   0.0000       1.504971        40.9524 
 440   0.0000       1.511056        41.1179 
 441   0.0000       1.515103        41.2281 
 442   0.0000       1.521495        41.4020 
 443   0.0000       1.523818        41.4652 
 444   0.0000       1.527676        41.5702 
 445   0.0000       1.539481        41.8914 
 446   0.0000       1.540555        41.9206 
 447   0.0000       1.543310        41.9956 
 448   0.0000       1.549575        42.1661 
 449   0.0000       1.555152        42.3178 
 450   0.0000       1.563269        42.5387 
 451   0.0000       1.566395        42.6238 
 452   0.0000       1.584389        43.1134 
 453   0.0000       1.586439        43.1692 
 454   0.0000       1.593797        43.3694 
 455   0.0000       1.597260        43.4636 
 456   0.0000       1.606019        43.7020 
 457   0.0000       1.606517        43.7156 
 458   0.0000       1.617103        44.0036 
 459   0.0000       1.623331        44.1731 
 460   0.0000       1.631266        44.3890 
 461   0.0000       1.634356        44.4731 
 462   0.0000       1.639791        44.6210 
 463   0.0000       1.644025        44.7362 
 464   0.0000       1.646307        44.7983 
 465   0.0000       1.658470        45.1293 
 466   0.0000       1.666537        45.3488 
 467   0.0000       1.674531        45.5663 
 468   0.0000       1.676073        45.6083 
 469   0.0000       1.682398        45.7804 
 470   0.0000       1.683939        45.8223 
 471   0.0000       1.692815        46.0638 
 472   0.0000       1.705644        46.4129 
 473   0.0000       1.707696        46.4688 
 474   0.0000       1.716204        46.7003 
 475   0.0000       1.718992        46.7761 
 476   0.0000       1.726701        46.9859 
 477   0.0000       1.733283        47.1650 
 478   0.0000       1.737088        47.2686 
 479   0.0000       1.739739        47.3407 
 480   0.0000       1.745672        47.5022 
 481   0.0000       1.750579        47.6357 
 482   0.0000       1.763855        47.9969 
 483   0.0000       1.765829        48.0506 
 484   0.0000       1.771498        48.2049 
 485   0.0000       1.784951        48.5710 
 486   0.0000       1.792682        48.7813 
 487   0.0000       1.794333        48.8263 
 488   0.0000       1.809058        49.2270 
 489   0.0000       1.809695        49.2443 
 490   0.0000       1.825768        49.6817 
 491   0.0000       1.831436        49.8359 
 492   0.0000       1.840688        50.0877 
 493   0.0000       1.849314        50.3224 
 494   0.0000       1.853616        50.4394 
 495   0.0000       1.861017        50.6408 
 496   0.0000       1.868189        50.8360 
 497   0.0000       1.873135        50.9706 
 498   0.0000       1.878706        51.1222 
 499   0.0000       1.881935        51.2101 
 500   0.0000       1.892858        51.5073 
 501   0.0000       1.898880        51.6711 
 502   0.0000       1.906802        51.8867 
 503   0.0000       1.917137        52.1679 
 504   0.0000       1.926891        52.4334 
 505   0.0000       1.930311        52.5264 
 506   0.0000       1.934129        52.6303 
 507   0.0000       1.949430        53.0467 
 508   0.0000       1.953184        53.1488 
 509   0.0000       1.959039        53.3082 
 510   0.0000       1.969034        53.5801 
 511   0.0000       1.980015        53.8790 
 512   0.0000       1.983376        53.9704 
 513   0.0000       1.997926        54.3663 
 514   0.0000       2.002321        54.4859 
 515   0.0000       2.007784        54.6346 
 516   0.0000       2.014966        54.8300 
 517   0.0000       2.020893        54.9913 
 518   0.0000       2.023409        55.0598 
 519   0.0000       2.033122        55.3241 
 520   0.0000       2.035561        55.3904 
 521   0.0000       2.038393        55.4675 
 522   0.0000       2.046308        55.6829 
 523   0.0000       2.051191        55.8157 
 524   0.0000       2.053755        55.8855 
 525   0.0000       2.061666        56.1008 
 526   0.0000       2.068197        56.2785 
 527   0.0000       2.069853        56.3236 
 528   0.0000       2.074126        56.4398 
 529   0.0000       2.081416        56.6382 
 530   0.0000       2.087857        56.8135 
 531   0.0000       2.091153        56.9032 
 532   0.0000       2.092968        56.9526 
 533   0.0000       2.100560        57.1591 
 534   0.0000       2.105825        57.3024 
 535   0.0000       2.111800        57.4650 
 536   0.0000       2.116865        57.6028 
 537   0.0000       2.120320        57.6968 
 538   0.0000       2.124503        57.8107 
 539   0.0000       2.129094        57.9356 
 540   0.0000       2.130355        57.9699 
 541   0.0000       2.140183        58.2374 
 542   0.0000       2.146095        58.3982 
 543   0.0000       2.150958        58.5305 
 544   0.0000       2.158502        58.7358 
 545   0.0000       2.162526        58.8453 
 546   0.0000       2.168866        59.0178 
 547   0.0000       2.170609        59.0653 
 548   0.0000       2.178165        59.2709 
 549   0.0000       2.185492        59.4703 
 550   0.0000       2.198372        59.8207 
 551   0.0000       2.200295        59.8731 
 552   0.0000       2.209074        60.1120 
 553   0.0000       2.209602        60.1263 
 554   0.0000       2.217400        60.3385 
 555   0.0000       2.224781        60.5394 
 556   0.0000       2.229561        60.6694 
 557   0.0000       2.232436        60.7477 
 558   0.0000       2.238900        60.9236 
 559   0.0000       2.251682        61.2714 
 560   0.0000       2.259788        61.4920 
 561   0.0000       2.264319        61.6153 
 562   0.0000       2.269845        61.7656 
 563   0.0000       2.275122        61.9092 
 564   0.0000       2.280705        62.0611 
 565   0.0000       2.287752        62.2529 
 566   0.0000       2.296917        62.5023 
 567   0.0000       2.299091        62.5614 
 568   0.0000       2.311019        62.8860 
 569   0.0000       2.314686        62.9858 
 570   0.0000       2.326734        63.3136 
 571   0.0000       2.329814        63.3975 
 572   0.0000       2.340715        63.6941 
 573   0.0000       2.350661        63.9647 
 574   0.0000       2.357669        64.1554 
 575   0.0000       2.358435        64.1763 
 576   0.0000       2.365472        64.3678 
 577   0.0000       2.367329        64.4183 
 578   0.0000       2.375291        64.6350 
 579   0.0000       2.382033        64.8184 
 580   0.0000       2.385674        64.9175 
 581   0.0000       2.393262        65.1240 
 582   0.0000       2.396506        65.2122 
 583   0.0000       2.409583        65.5681 
 584   0.0000       2.417410        65.7811 
 585   0.0000       2.422251        65.9128 
 586   0.0000       2.432488        66.1914 
 587   0.0000       2.438335        66.3505 
 588   0.0000       2.448452        66.6258 
 589   0.0000       2.456235        66.8376 
 590   0.0000       2.463401        67.0326 
 591   0.0000       2.469625        67.2019 
 592   0.0000       2.479711        67.4764 
 593   0.0000       2.491391        67.7942 
 594   0.0000       2.496938        67.9451 
 595   0.0000       2.500981        68.0551 
 596   0.0000       2.510419        68.3120 
 597   0.0000       2.516746        68.4841 
 598   0.0000       2.525472        68.7216 
 599   0.0000       2.530423        68.8563 
 600   0.0000       2.537413        69.0465 
 601   0.0000       2.548504        69.3483 
 602   0.0000       2.549579        69.3776 
 603   0.0000       2.551333        69.4253 
 604   0.0000       2.556352        69.5619 
 605   0.0000       2.567407        69.8627 
 606   0.0000       2.573769        70.0358 
 607   0.0000       2.581745        70.2529 
 608   0.0000       2.591243        70.5113 
 609   0.0000       2.595531        70.6280 
 610   0.0000       2.602844        70.8270 
 611   0.0000       2.610640        71.0391 
 612   0.0000       2.614815        71.1527 
 613   0.0000       2.628095        71.5141 
 614   0.0000       2.630112        71.5690 
 615   0.0000       2.638693        71.8025 
 616   0.0000       2.653745        72.2121 
 617   0.0000       2.658700        72.3469 
 618   0.0000       2.674890        72.7875 
 619   0.0000       2.680747        72.9468 
 620   0.0000       2.698519        73.4304 
 621   0.0000       2.702166        73.5297 
 622   0.0000       2.705288        73.6146 
 623   0.0000       2.719095        73.9903 
 624   0.0000       2.726476        74.1912 
 625   0.0000       2.731389        74.3249 
 626   0.0000       2.748943        74.8025 
 627   0.0000       2.758187        75.0541 
 628   0.0000       2.775441        75.5236 
 629   0.0000       2.790631        75.9369 
 630   0.0000       2.802140        76.2501 
 631   0.0000       2.808680        76.4281 
 632   0.0000       2.816921        76.6523 
 633   0.0000       2.829770        77.0020 
 634   0.0000       2.849039        77.5263 
 635   0.0000       2.855568        77.7040 
 636   0.0000       2.861441        77.8638 
 637   0.0000       2.864446        77.9455 
 638   0.0000       2.884201        78.4831 
 639   0.0000       2.901966        78.9665 
 640   0.0000       2.915053        79.3226 
 641   0.0000       2.918303        79.4111 
 642   0.0000       2.930599        79.7457 
 643   0.0000       2.937185        79.9249 
 644   0.0000       2.943998        80.1103 
 645   0.0000       2.955202        80.4151 
 646   0.0000       2.965938        80.7073 
 647   0.0000       2.994702        81.4900 
 648   0.0000       3.000125        81.6376 
 649   0.0000       3.005985        81.7970 
 650   0.0000       3.013108        81.9908 
 651   0.0000       3.036076        82.6158 
 652   0.0000       3.045445        82.8708 
 653   0.0000       3.052098        83.0518 
 654   0.0000       3.061414        83.3053 
 655   0.0000       3.072728        83.6132 
 656   0.0000       3.088395        84.0395 
 657   0.0000       3.108264        84.5802 
 658   0.0000       3.112500        84.6954 
 659   0.0000       3.116731        84.8106 
 660   0.0000       3.124629        85.0255 
 661   0.0000       3.130906        85.1963 
 662   0.0000       3.138965        85.4156 
 663   0.0000       3.144679        85.5711 
 664   0.0000       3.156324        85.8880 
 665   0.0000       3.181949        86.5852 
 666   0.0000       3.188738        86.7700 
 667   0.0000       3.194417        86.9245 
 668   0.0000       3.196403        86.9786 
 669   0.0000       3.227245        87.8178 
 670   0.0000       3.233497        87.9879 
 671   0.0000       3.251324        88.4730 
 672   0.0000       3.272910        89.0604 
 673   0.0000       3.278903        89.2235 
 674   0.0000       3.288148        89.4751 
 675   0.0000       3.289716        89.5177 
 676   0.0000       3.297005        89.7161 
 677   0.0000       3.303491        89.8926 
 678   0.0000       3.312263        90.1313 
 679   0.0000       3.321722        90.3887 
 680   0.0000       3.327809        90.5543 
 681   0.0000       3.333063        90.6973 
 682   0.0000       3.337478        90.8174 
 683   0.0000       3.341813        90.9354 
 684   0.0000       3.350738        91.1782 
 685   0.0000       3.355962        91.3204 
 686   0.0000       3.360996        91.4573 
 687   0.0000       3.370134        91.7060 
 688   0.0000       3.371554        91.7447 
 689   0.0000       3.389381        92.2297 
 690   0.0000       3.398049        92.4656 
 691   0.0000       3.407749        92.7296 
 692   0.0000       3.411608        92.8346 
 693   0.0000       3.418499        93.0221 
 694   0.0000       3.432476        93.4024 
 695   0.0000       3.434348        93.4534 
 696   0.0000       3.454167        93.9927 
 697   0.0000       3.459591        94.1402 
 698   0.0000       3.471867        94.4743 
 699   0.0000       3.475256        94.5665 
 700   0.0000       3.478747        94.6615 
 701   0.0000       3.482222        94.7561 
 702   0.0000       3.484542        94.8192 
 703   0.0000       3.489125        94.9439 
 704   0.0000       3.500601        95.2562 
 705   0.0000       3.503836        95.3442 
 706   0.0000       3.509924        95.5099 
 707   0.0000       3.518356        95.7393 
 708   0.0000       3.537745        96.2669 
 709   0.0000       3.541511        96.3694 
 710   0.0000       3.555188        96.7416 
 711   0.0000       3.565465        97.0212 
 712   0.0000       3.566552        97.0508 
 713   0.0000       3.579372        97.3997 
 714   0.0000       3.583557        97.5135 
 715   0.0000       3.586758        97.6007 
 716   0.0000       3.594123        97.8010 
 717   0.0000       3.604960        98.0960 
 718   0.0000       3.612406        98.2986 
 719   0.0000       3.616252        98.4032 
 720   0.0000       3.621682        98.5510 
 721   0.0000       3.625742        98.6615 
 722   0.0000       3.631625        98.8216 
 723   0.0000       3.644849        99.1814 
 724   0.0000       3.654420        99.4418 
 725   0.0000       3.658409        99.5504 
 726   0.0000       3.664894        99.7268 
 727   0.0000       3.674241        99.9812 
 728   0.0000       3.680570       100.1534 
 729   0.0000       3.686345       100.3106 
 730   0.0000       3.692990       100.4914 
 731   0.0000       3.702890       100.7607 
 732   0.0000       3.718000       101.1719 
 733   0.0000       3.732320       101.5616 
 734   0.0000       3.743890       101.8764 
 735   0.0000       3.747686       101.9797 
 736   0.0000       3.753598       102.1406 
 737   0.0000       3.756250       102.2128 
 738   0.0000       3.760075       102.3168 
 739   0.0000       3.772878       102.6652 
 740   0.0000       3.775292       102.7309 
 741   0.0000       3.782605       102.9299 
 742   0.0000       3.788023       103.0774 
 743   0.0000       3.796453       103.3067 
 744   0.0000       3.799239       103.3825 
 745   0.0000       3.805277       103.5469 
 746   0.0000       3.809522       103.6624 
 747   0.0000       3.815996       103.8385 
 748   0.0000       3.820876       103.9713 
 749   0.0000       3.828216       104.1711 
 750   0.0000       3.829264       104.1996 
 751   0.0000       3.836957       104.4089 
 752   0.0000       3.843728       104.5932 
 753   0.0000       3.850223       104.7699 
 754   0.0000       3.862705       105.1096 
 755   0.0000       3.872855       105.3857 
 756   0.0000       3.876976       105.4979 
 757   0.0000       3.889961       105.8512 
 758   0.0000       3.898775       106.0911 
 759   0.0000       3.917276       106.5945 
 760   0.0000       3.921149       106.6999 
 761   0.0000       3.923799       106.7720 
 762   0.0000       3.934004       107.0497 
 763   0.0000       3.940556       107.2280 
 764   0.0000       3.947585       107.4193 
 765   0.0000       3.955923       107.6461 
 766   0.0000       3.960795       107.7787 
 767   0.0000       3.980721       108.3209 
 768   0.0000       3.987833       108.5144 
 769   0.0000       3.993799       108.6768 
 770   0.0000       4.007022       109.0366 
 771   0.0000       4.026482       109.5661 
 772   0.0000       4.032118       109.7195 
 773   0.0000       4.035635       109.8152 
 774   0.0000       4.047176       110.1293 
 775   0.0000       4.060590       110.4943 
 776   0.0000       4.067836       110.6915 
 777   0.0000       4.075985       110.9132 
 778   0.0000       4.090888       111.3187 
 779   0.0000       4.097217       111.4909 
 780   0.0000       4.111391       111.8766 
 781   0.0000       4.121889       112.1623 
 782   0.0000       4.129050       112.3572 
 783   0.0000       4.139032       112.6288 
 784   0.0000       4.152550       112.9966 
 785   0.0000       4.161825       113.2490 
 786   0.0000       4.166710       113.3819 
 787   0.0000       4.173103       113.5559 
 788   0.0000       4.177258       113.6690 
 789   0.0000       4.183492       113.8386 
 790   0.0000       4.187393       113.9448 
 791   0.0000       4.190254       114.0226 
 792   0.0000       4.200327       114.2967 
 793   0.0000       4.210763       114.5807 
 794   0.0000       4.216748       114.7436 
 795   0.0000       4.231796       115.1530 
 796   0.0000       4.241270       115.4108 
 797   0.0000       4.249666       115.6393 
 798   0.0000       4.260683       115.9391 
 799   0.0000       4.269480       116.1785 
 800   0.0000       4.271673       116.2381 
 801   0.0000       4.298057       116.9561 
 802   0.0000       4.303216       117.0965 
 803   0.0000       4.321820       117.6027 
 804   0.0000       4.323648       117.6525 
 805   0.0000       4.349170       118.3469 
 806   0.0000       4.370286       118.9215 
 807   0.0000       4.384380       119.3050 
 808   0.0000       4.395424       119.6056 
 809   0.0000       4.397893       119.6727 
 810   0.0000       4.415817       120.1605 
 811   0.0000       4.425657       120.4282 
 812   0.0000       4.438746       120.7844 
 813   0.0000       4.441808       120.8677 
 814   0.0000       4.458369       121.3184 
 815   0.0000       4.476432       121.8099 
 816   0.0000       4.480026       121.9077 
 817   0.0000       4.488886       122.1488 
 818   0.0000       4.495694       122.3341 
 819   0.0000       4.508450       122.6812 
 820   0.0000       4.517807       122.9358 
 821   0.0000       4.536218       123.4368 
 822   0.0000       4.542448       123.6063 
 823   0.0000       4.554407       123.9317 
 824   0.0000       4.569449       124.3410 
 825   0.0000       4.574859       124.4883 
 826   0.0000       4.577827       124.5690 
 827   0.0000       4.584055       124.7385 
 828   0.0000       4.595992       125.0633 
 829   0.0000       4.623624       125.8152 
 830   0.0000       4.637383       126.1896 
 831   0.0000       4.654654       126.6596 
 832   0.0000       4.657334       126.7325 
 833   0.0000       4.667259       127.0026 
 834   0.0000       4.671348       127.1138 
 835   0.0000       4.676671       127.2587 
 836   0.0000       4.695010       127.7577 
 837   0.0000       4.704025       128.0030 
 838   0.0000       4.711829       128.2154 
 839   0.0000       4.729374       128.6928 
 840   0.0000       4.734611       128.8353 
 841   0.0000       4.746800       129.1670 
 842   0.0000       4.781780       130.1188 
 843   0.0000       4.800127       130.6181 
 844   0.0000       4.827527       131.3637 
 845   0.0000       4.848672       131.9391 
 846   0.0000       4.860097       132.2500 
 847   0.0000       4.902456       133.4026 
 848   0.0000       4.916745       133.7914 
 849   0.0000       4.924497       134.0024 
 850   0.0000       4.946392       134.5982 
 851   0.0000       4.954902       134.8297 
 852   0.0000       4.972105       135.2979 
 853   0.0000       4.985509       135.6626 
 854   0.0000       4.988276       135.7379 
 855   0.0000       5.000893       136.0812 
 856   0.0000       5.028505       136.8326 
 857   0.0000       5.049690       137.4090 
 858   0.0000       5.101186       138.8103 
 859   0.0000       5.140371       139.8766 
 860   0.0000       5.156945       140.3276 
 861   0.0000       5.177033       140.8742 
 862   0.0000       5.182824       141.0318 
 863   0.0000       5.184416       141.0751 
 864   0.0000       5.213447       141.8651 
 865   0.0000       5.215404       141.9184 
 866   0.0000       5.220457       142.0558 
 867   0.0000       5.222159       142.1022 
 868   0.0000       5.251770       142.9079 
 869   0.0000       5.259616       143.1214 
 870   0.0000       5.268345       143.3590 
 871   0.0000       5.284025       143.7856 
 872   0.0000       5.346276       145.4796 
 873   0.0000       5.357421       145.7828 
 874   0.0000       5.363797       145.9563 
 875   0.0000       5.378647       146.3604 
 876   0.0000       5.379798       146.3918 
 877   0.0000       5.405190       147.0827 
 878   0.0000       5.417607       147.4206 
 879   0.0000       5.426500       147.6626 
 880   0.0000       5.441170       148.0618 
 881   0.0000       5.446918       148.2182 
 882   0.0000       5.491963       149.4439 
 883   0.0000       5.500256       149.6696 
 884   0.0000       5.548299       150.9769 
 885   0.0000       5.562591       151.3658 
 886   0.0000       5.575143       151.7074 
 887   0.0000       5.587476       152.0429 
 888   0.0000       5.593317       152.2019 
 889   0.0000       5.605366       152.5298 
 890   0.0000       5.612769       152.7312 
 891   0.0000       5.618456       152.8860 
 892   0.0000       5.639717       153.4645 
 893   0.0000       5.646460       153.6480 
 894   0.0000       5.653028       153.8267 
 895   0.0000       5.659981       154.0159 
 896   0.0000       5.676559       154.4670 
 897   0.0000       5.679615       154.5502 
 898   0.0000       5.694663       154.9597 
 899   0.0000       5.708475       155.3355 
 900   0.0000       5.729167       155.8985 
 901   0.0000       5.780462       157.2944 
 902   0.0000       5.810704       158.1173 
 903   0.0000       5.858808       159.4263 
 904   0.0000       5.887458       160.2059 
 905   0.0000       5.889818       160.2701 
 906   0.0000       5.910780       160.8405 
 907   0.0000       5.921178       161.1234 
 908   0.0000       5.932621       161.4348 
 909   0.0000       5.949367       161.8905 
 910   0.0000       5.966463       162.3557 
 911   0.0000       5.968181       162.4025 
 912   0.0000       5.990733       163.0161 
 913   0.0000       5.995889       163.1564 
 914   0.0000       6.093760       165.8196 
 915   0.0000       6.250132       170.0747 
 916   0.0000       6.379412       173.5926 
 917   0.0000       6.495393       176.7486 
 918   0.0000       6.553792       178.3378 
 919   0.0000       6.594803       179.4537 
 920   0.0000       6.664575       181.3523 
 921   0.0000       6.756460       183.8526 
 922   0.0000       6.889742       187.4794 
 923   0.0000       6.921600       188.3463 
 924   0.0000       6.947767       189.0583 
 925   0.0000       6.965379       189.5376 
 926   0.0000       7.004599       190.6048 
 927   0.0000       7.077664       192.5930 
 928   0.0000       7.141058       194.3181 
 929   0.0000       7.204389       196.0414 
 930   0.0000       7.212628       196.2656 
 931   0.0000       7.225090       196.6047 
 932   0.0000       7.236331       196.9106 
 933   0.0000       7.248200       197.2335 
 934   0.0000       7.251790       197.3312 
 935   0.0000       7.258880       197.5242 
 936   0.0000       7.265366       197.7007 
 937   0.0000       7.278573       198.0600 
 938   0.0000       7.283994       198.2075 
 939   0.0000       7.288771       198.3376 
 940   0.0000       7.296100       198.5370 
 941   0.0000       7.301233       198.6766 
 942   0.0000       7.314887       199.0482 
 943   0.0000       7.317803       199.1276 
 944   0.0000       7.321041       199.2157 
 945   0.0000       7.332662       199.5319 
 946   0.0000       7.341840       199.7816 
 947   0.0000       7.348050       199.9506 
 948   0.0000       7.363016       200.3578 
 949   0.0000       7.367652       200.4840 
 950   0.0000       7.390846       201.1151 
 951   0.0000       7.398946       201.3356 
 952   0.0000       7.416369       201.8097 
 953   0.0000       7.435924       202.3418 
 954   0.0000       7.465416       203.1443 
 955   0.0000       7.491203       203.8460 
 956   0.0000       7.529860       204.8979 
 957   0.0000       7.547255       205.3713 
 958   0.0000       7.551563       205.4885 
 959   0.0000       7.626098       207.5167 
 960   0.0000       7.635551       207.7739 
 961   0.0000       7.659834       208.4347 
 962   0.0000       7.698471       209.4860 
 963   0.0000       7.702476       209.5950 
 964   0.0000       7.854237       213.7247 
 965   0.0000       7.989517       217.4058 
 966   0.0000       8.281340       225.3467 
 967   0.0000       8.325058       226.5363 
 968   0.0000       9.578283       260.6383 
 969   0.0000       9.590991       260.9841 
 970   0.0000       9.591679       261.0029 
 971   0.0000       9.622990       261.8549 
 972   0.0000       9.636779       262.2301 
 973   0.0000       9.790166       266.4039 
 974   0.0000       9.827646       267.4238 
 975   0.0000       9.849026       268.0056 
 976   0.0000       9.886369       269.0218 
 977   0.0000       9.903431       269.4861 
 978   0.0000       9.930591       270.2251 
 979   0.0000       9.974379       271.4167 
 980   0.0000       9.982966       271.6503 
 981   0.0000      10.074089       274.1299 
 982   0.0000      10.096510       274.7400 
 983   0.0000      20.487644       557.4971 
 984   0.0000      20.731660       564.1372 
 985   0.0000      20.778289       565.4060 
 986   0.0000      21.000887       571.4632 
 987   0.0000      21.161163       575.8245 
 988   0.0000      23.386361       636.3752 
 989   0.0000      23.497147       639.3899 
 990   0.0000      23.780021       647.0873 
 991   0.0000      23.801571       647.6737 
[...]
      dyz     :     0.050597
      dx2y2   :     0.034557
      dxy     :     0.081559
      f0      :     0.000769  f :     0.005391
      f+1     :     0.001526
      f-1     :     0.000468
      f+2     :     0.000916
      f-2     :     0.001072
      f+3     :     0.000329
      f-3     :     0.000311
  4 C s       :     2.710269  s :     2.710269
      pz      :     0.962414  p :     2.844040
      px      :     0.952061
      py      :     0.929566
      dz2     :     0.105890  d :     0.740201
      dxz     :     0.127301
      dyz     :     0.157289
      dx2y2   :     0.161214
      dxy     :     0.188508
      f0      :     0.002516  f :     0.027150
      f+1     :     0.003743
      f-1     :     0.004541
      f+2     :     0.003701
      f-2     :     0.003286
      f+3     :     0.004118
      f-3     :     0.005244
  5 S s       :     5.192367  s :     5.192367
      pz      :     3.342972  p :     9.852989
      px      :     3.373504
      py      :     3.136512
      dz2     :     0.101317  d :     0.522871
      dxz     :     0.084186
      dyz     :     0.123297
      dx2y2   :     0.105640
      dxy     :     0.108431
      f0      :     0.002546  f :     0.023578
      f+1     :     0.001751
      f-1     :     0.004049
      f+2     :     0.003005
      f-2     :     0.003035
      f+3     :     0.004547
      f-3     :     0.004644
  6 C s       :     2.752356  s :     2.752356
      pz      :     0.878759  p :     2.824131
      px      :     0.961720
      py      :     0.983652
      dz2     :     0.140200  d :     0.950862
      dxz     :     0.198250
      dyz     :     0.120387
      dx2y2   :     0.293111
      dxy     :     0.198914
      f0      :     0.004547  f :     0.040144
      f+1     :     0.004603
      f-1     :     0.002906
      f+2     :     0.004471
      f-2     :     0.007020
      f+3     :     0.008157
      f-3     :     0.008441
  7 S s       :     5.098108  s :     5.098108
      pz      :     3.207090  p :     9.667759
      px      :     3.141535
      py      :     3.319134
      dz2     :     0.090563  d :     0.593940
      dxz     :     0.137654
      dyz     :     0.094853
      dx2y2   :     0.117889
      dxy     :     0.152981
      f0      :     0.002710  f :     0.031083
      f+1     :     0.005188
      f-1     :     0.001595
      f+2     :     0.006256
      f-2     :     0.003951
      f+3     :     0.006120
      f-3     :     0.005262
  8 C s       :     2.754930  s :     2.754930
      pz      :     0.833260  p :     2.803109
      px      :     0.964203
      py      :     1.005646
      dz2     :     0.096118  d :     1.000303
      dxz     :     0.106022
      dyz     :     0.231584
      dx2y2   :     0.310972
      dxy     :     0.255608
      f0      :     0.004204  f :     0.041784
      f+1     :     0.001431
      f-1     :     0.005914
      f+2     :     0.004165
      f-2     :     0.006915
      f+3     :     0.009769
      f-3     :     0.009386
  9 S s       :     5.154226  s :     5.154226
      pz      :     3.277775  p :     9.800552
      px      :     3.385031
      py      :     3.137745
      dz2     :     0.093546  d :     0.523169
      dxz     :     0.060950
      dyz     :     0.126071
      dx2y2   :     0.112086
      dxy     :     0.130516
      f0      :     0.002553  f :     0.027455
      f+1     :     0.000934
      f-1     :     0.004433
      f+2     :     0.005377
      f-2     :     0.002483
      f+3     :     0.005614
      f-3     :     0.006061
 10 C s       :     2.749384  s :     2.749384
      pz      :     0.886472  p :     2.800978
      px      :     0.913968
      py      :     1.000538
      dz2     :     0.214702  d :     1.009762
      dxz     :     0.199085
      dyz     :     0.143927
      dx2y2   :     0.256405
      dxy     :     0.195643
      f0      :     0.003251  f :     0.039778
      f+1     :     0.004290
      f-1     :     0.005907
      f+2     :     0.005895
      f-2     :     0.007024
      f+3     :     0.006008
      f-3     :     0.007405
 11 S s       :     5.157061  s :     5.157061
      pz      :     3.315407  p :     9.834816
      px      :     3.208521
      py      :     3.310888
      dz2     :     0.075475  d :     0.504197
      dxz     :     0.119702
      dyz     :     0.096187
      dx2y2   :     0.101750
      dxy     :     0.111083
      f0      :     0.002571  f :     0.025884
      f+1     :     0.005112
      f-1     :     0.001151
      f+2     :     0.005880
      f-2     :     0.003644
      f+3     :     0.004064
      f-3     :     0.003463
 12 C s       :     2.748120  s :     2.748120
      pz      :     0.877810  p :     2.804706
      px      :     0.932527
      py      :     0.994369
      dz2     :     0.111517  d :     0.988913
      dxz     :     0.114358
      dyz     :     0.220028
      dx2y2   :     0.292932
      dxy     :     0.250078
      f0      :     0.004066  f :     0.039892
      f+1     :     0.001373
      f-1     :     0.006418
      f+2     :     0.005476
      f-2     :     0.006000
      f+3     :     0.006406
      f-3     :     0.010152
 13 S s       :     5.151221  s :     5.151221
      pz      :     3.318466  p :     9.795353
      px      :     3.330432
      py      :     3.146455
      dz2     :     0.086440  d :     0.490698
      dxz     :     0.066535
      dyz     :     0.111070
      dx2y2   :     0.103635
      dxy     :     0.123018
      f0      :     0.003453  f :     0.027069
      f+1     :     0.002206
      f-1     :     0.003708
      f+2     :     0.002853
      f-2     :     0.002972
      f+3     :     0.006224
      f-3     :     0.005653
 14 W s       :     1.997760  s :     1.997760
      pz      :     2.203436  p :     6.638966
      px      :     2.206869
      py      :     2.228661
      dz2     :     0.843975  d :     4.622114
      dxz     :     0.970024
      dyz     :     0.904236
      dx2y2   :     0.906347
      dxy     :     0.997532
      f0      :     0.071287  f :     0.540988
      f+1     :     0.093408
      f-1     :     0.063935
      f+2     :     0.111578
      f-2     :     0.058401
      f+3     :     0.066013
      f-3     :     0.076365
      g0      :     0.004173  g :     0.050267
      g+1     :     0.006991
      g-1     :     0.003332
      g+2     :     0.007429
      g-2     :     0.005570
      g+3     :     0.007011
      g-3     :     0.006349
      g+4     :     0.006131
      g-4     :     0.003281
 15 O s       :     3.148863  s :     3.148863
      pz      :     1.408432  p :     4.253644
      px      :     1.403083
      py      :     1.442130
      dz2     :     0.051604  d :     0.258745
      dxz     :     0.046767
      dyz     :     0.026845
      dx2y2   :     0.046646
      dxy     :     0.086884
      f0      :     0.000718  f :     0.002677
      f+1     :     0.000405
      f-1     :     0.000644
      f+2     :     0.000082
      f-2     :     0.000114
      f+3     :     0.000317
      f-3     :     0.000398
 16 C s       :     2.723805  s :     2.723805
      pz      :     0.862911  p :     2.688562
      px      :     0.836654
      py      :     0.988997
      dz2     :     0.132826  d :     0.783243
      dxz     :     0.103429
      dyz     :     0.184989
      dx2y2   :     0.175456
      dxy     :     0.186543
      f0      :     0.003705  f :     0.040155
      f+1     :     0.002766
      f-1     :     0.006560
      f+2     :     0.007773
      f-2     :     0.004651
      f+3     :     0.008023
      f-3     :     0.006677
 17 C s       :     2.694249  s :     2.694249
      pz      :     0.892037  p :     2.530034
      px      :     0.667958
      py      :     0.970039
      dz2     :     0.172942  d :     0.974829
      dxz     :     0.118682
      dyz     :     0.224789
      dx2y2   :     0.211148
      dxy     :     0.247268
      f0      :     0.003181  f :     0.045837
      f+1     :     0.003537
      f-1     :     0.007213
      f+2     :     0.010193
      f-2     :     0.004630
      f+3     :     0.009188
      f-3     :     0.007896
 18 H s       :     0.701980  s :     0.701980
      pz      :     0.100614  p :     0.287985
      px      :     0.090896
      py      :     0.096475
      dz2     :     0.007273  d :     0.029581
      dxz     :     0.004784
      dyz     :     0.006392
      dx2y2   :     0.006087
      dxy     :     0.005044
 19 H s       :     0.703598  s :     0.703598
      pz      :     0.127446  p :     0.297891
      px      :     0.082720
      py      :     0.087726
      dz2     :     0.010014  d :     0.030423
      dxz     :     0.008077
      dyz     :     0.009639
      dx2y2   :     0.001487
      dxy     :     0.001207
 20 H s       :     0.709856  s :     0.709856
      pz      :     0.099054  p :     0.350661
      px      :     0.135063
      py      :     0.116543
      dz2     :     0.003455  d :     0.030808
      dxz     :     0.007094
      dyz     :     0.003649
      dx2y2   :     0.008451
      dxy     :     0.008159
 21 H s       :     0.701358  s :     0.701358
      pz      :     0.170506  p :     0.398319
      px      :     0.109521
      py      :     0.118292
      dz2     :     0.008526  d :     0.031590
      dxz     :     0.007893
      dyz     :     0.007563
      dx2y2   :     0.003734
      dxy     :     0.003875
 22 H s       :     0.503292  s :     0.503292
      pz      :     0.113708  p :     0.699932
      px      :     0.267049
      py      :     0.319176
      dz2     :     0.009506  d :     0.084700
      dxz     :     0.010099
      dyz     :     0.012437
      dx2y2   :     0.024744
      dxy     :     0.027914
 23 H s       :     0.576353  s :     0.576353
      pz      :     0.271652  p :     0.563140
      px      :     0.145474
      py      :     0.146014
      dz2     :     0.034479  d :     0.094866
      dxz     :     0.025167
      dyz     :     0.026980
      dx2y2   :     0.004384
      dxy     :     0.003855
 24 H s       :     0.722872  s :     0.722872
      pz      :     0.092074  p :     0.309760
      px      :     0.099983
      py      :     0.117702
      dz2     :     0.003441  d :     0.030373
      dxz     :     0.002300
      dyz     :     0.007823
      dx2y2   :     0.008321
      dxy     :     0.008488
 25 H s       :     0.695937  s :     0.695937
      pz      :     0.125343  p :     0.323834
      px      :     0.104840
      py      :     0.093650
      dz2     :     0.011060  d :     0.031586
      dxz     :     0.005042
      dyz     :     0.009390
      dx2y2   :     0.003487
      dxy     :     0.002606
 26 H s       :     0.729626  s :     0.729626
      pz      :     0.092275  p :     0.316470
      px      :     0.098283
      py      :     0.125912
      dz2     :     0.002983  d :     0.030433
      dxz     :     0.001219
      dyz     :     0.008581
      dx2y2   :     0.008368
      dxy     :     0.009282
 27 H s       :     0.722574  s :     0.722574
      pz      :     0.099849  p :     0.313418
      px      :     0.126718
      py      :     0.086851
      dz2     :     0.005796  d :     0.030585
      dxz     :     0.008745
      dyz     :     0.002701
      dx2y2   :     0.006479
      dxy     :     0.006864
 28 H s       :     0.730951  s :     0.730951
      pz      :     0.119741  p :     0.327551
      px      :     0.113660
      py      :     0.094150
      dz2     :     0.008563  d :     0.030226
      dxz     :     0.008237
      dyz     :     0.005023
      dx2y2   :     0.004072
      dxy     :     0.004331
 29 H s       :     0.732920  s :     0.732920
      pz      :     0.105716  p :     0.324328
      px      :     0.090097
      py      :     0.128515
      dz2     :     0.004245  d :     0.030626
      dxz     :     0.001473
      dyz     :     0.009382
      dx2y2   :     0.007404
      dxy     :     0.008123
 30 H s       :     0.731927  s :     0.731927
      pz      :     0.100849  p :     0.318437
      px      :     0.122941
      py      :     0.094647
      dz2     :     0.004535  d :     0.030226
      dxz     :     0.008385
      dyz     :     0.002308
      dx2y2   :     0.007037
      dxy     :     0.007961
 31 H s       :     0.710887  s :     0.710887
      pz      :     0.085136  p :     0.289197
      px      :     0.126197
      py      :     0.077864
      dz2     :     0.003564  d :     0.029614
      dxz     :     0.008862
      dyz     :     0.000663
      dx2y2   :     0.007664
      dxy     :     0.008860


                      *****************************
                      * MAYER POPULATION ANALYSIS *
                      *****************************

  NA   - Mulliken gross atomic population
  ZA   - Total nuclear charge
  QA   - Mulliken gross atomic charge
  VA   - Mayer's total valence
  BVA  - Mayer's bonded valence
  FA   - Mayer's free valence

  ATOM       NA         ZA         QA         VA         BVA        FA
  0 C      6.9458     6.0000    -0.9458     3.7279     3.7279     0.0000
  1 C      5.2425     6.0000     0.7575     3.3935     3.3935     0.0000
  2 O      8.7456     8.0000    -0.7456     1.5048     1.5048     0.0000
  3 O      8.6483     8.0000    -0.6483     1.5158     1.5158     0.0000
  4 C      6.5398     6.0000    -0.5398     3.5601     3.5601     0.0000
  5 S     16.3118    16.0000    -0.3118     1.9074     1.9074     0.0000
  6 C      6.0759     6.0000    -0.0759     3.3066     3.3066     0.0000
  7 S     16.2183    16.0000    -0.2183     2.1775     2.1775    -0.0000
  8 C      6.1730     6.0000    -0.1730     3.5346     3.5346     0.0000
  9 S     16.1959    16.0000    -0.1959     2.0936     2.0936     0.0000
 10 C      6.1536     6.0000    -0.1536     3.2309     3.2309    -0.0000
 11 S     16.2493    16.0000    -0.2493     2.0251     2.0251     0.0000
 12 C      6.2001     6.0000    -0.2001     3.4014     3.4014    -0.0000
 13 S     16.1801    16.0000    -0.1801     2.1645     2.1645     0.0000
 14 W     14.3764    14.0000    -0.3764     7.9362     7.9362    -0.0000
 15 O      8.5766     8.0000    -0.5766     1.6741     1.6741     0.0000
 16 C      6.3258     6.0000    -0.3258     2.8414     2.8414    -0.0000
 17 C      6.0539     6.0000    -0.0539     2.7404     2.7404     0.0000
 18 H      0.8166     1.0000     0.1834     1.0542     1.0542     0.0000
 19 H      0.7281     1.0000     0.2719     0.9833     0.9833     0.0000
 20 H      0.7842     1.0000     0.2158     1.0017     1.0017     0.0000
 21 H      0.8449     1.0000     0.1551     1.0279     1.0279     0.0000
 22 H      0.5646     1.0000     0.4354     0.7456     0.7456    -0.0000
 23 H      0.7051     1.0000     0.2949     0.8947     0.8947     0.0000
 24 H      0.7653     1.0000     0.2347     0.9365     0.9365    -0.0000
 25 H      0.6612     1.0000     0.3388     0.9732     0.9732     0.0000
 26 H      0.8569     1.0000     0.1431     1.0162     1.0162    -0.0000
 27 H      0.8720     1.0000     0.1280     1.0261     1.0261    -0.0000
 28 H      0.6873     1.0000     0.3127     0.9432     0.9432     0.0000
 29 H      0.8907     1.0000     0.1093     1.0052     1.0052     0.0000
 30 H      0.8881     1.0000     0.1119     1.0360     1.0360     0.0000
 31 H      0.7222     1.0000     0.2778     1.0283     1.0283     0.0000

  Mayer bond orders larger than 0.100000
B(  0-C ,  1-C ) :   0.7180 B(  0-C , 18-H ) :   1.0130 B(  0-C , 19-H ) :   0.9874 
B(  0-C , 31-H ) :   0.9950 B(  1-C ,  2-O ) :   1.4623 B(  1-C ,  3-O ) :   1.3343 
B(  3-O , 22-H ) :   0.1984 B(  4-C ,  5-S ) :   0.7894 B(  4-C ,  9-S ) :  -0.1094 
B(  4-C , 20-H ) :   1.0079 B(  4-C , 21-H ) :   0.9227 B(  4-C , 28-H ) :   0.9270 
B(  5-S , 14-W ) :   1.1543 B(  5-S , 16-C ) :  -0.1419 B(  5-S , 17-C ) :   0.1131 
B(  6-C ,  7-S ) :   0.8592 B(  6-C ,  8-C ) :   1.3067 B(  6-C , 29-H ) :   1.1590 
B(  6-C , 30-H ) :  -0.1370 B(  7-S ,  8-C ) :   0.1338 B(  7-S , 14-W ) :   1.2688 
B(  8-C ,  9-S ) :   1.0360 B(  8-C , 29-H ) :  -0.1331 B(  8-C , 30-H ) :   1.1687 
B(  9-S , 14-W ) :   1.0060 B( 10-C , 11-S ) :   1.0471 B( 10-C , 12-C ) :   1.1351 
B( 10-C , 26-H ) :   1.1676 B( 10-C , 27-H ) :  -0.1690 B( 11-S , 14-W ) :   1.0479 
B( 11-S , 17-C ) :  -0.1348 B( 12-C , 13-S ) :   1.0890 B( 12-C , 26-H ) :  -0.1425 
B( 12-C , 27-H ) :   1.1912 B( 13-S , 14-W ) :   1.1240 B( 14-W , 16-C ) :   1.2903 
B( 14-W , 17-C ) :   0.7435 B( 15-O , 17-C ) :   0.1733 B( 15-O , 22-H ) :   0.5379 
B( 15-O , 23-H ) :   0.9016 B( 16-C , 17-C ) :   0.8177 B( 16-C , 24-H ) :   0.8813 
B( 17-C , 25-H ) :   1.0270 

-------
TIMINGS
-------

Total SCF time: 0 days 0 hours 22 min 6 sec 

Total time                  ....    1326.941 sec
Sum of individual times     ....    1324.962 sec  ( 99.9%)

Fock matrix formation       ....    1315.679 sec  ( 99.2%)
  XC integration            ....      16.129 sec  (  1.2% of F)
    Basis function eval.    ....       1.527 sec  (  9.5% of XC)
    Density eval.           ....       5.804 sec  ( 36.0% of XC)
    XC-Functional eval.     ....       0.142 sec  (  0.9% of XC)
    XC-Potential eval.      ....       7.211 sec  ( 44.7% of XC)
Diagonalization             ....       2.791 sec  (  0.2%)
Density matrix formation    ....       0.147 sec  (  0.0%)
Population analysis         ....       0.229 sec  (  0.0%)
Initial guess               ....       2.427 sec  (  0.2%)
Orbital Transformation      ....       0.000 sec  (  0.0%)
Orbital Orthonormalization  ....       0.000 sec  (  0.0%)
DIIS solution               ....       2.695 sec  (  0.2%)
Grid generation             ....       0.994 sec  (  0.1%)

-------------------------   --------------------
FINAL SINGLE POINT ENERGY     -2635.158204653471
-------------------------   --------------------


                            ***************************************
                            *     ORCA property calculations      *
                            ***************************************

                                    ---------------------
                                    Active property flags
                                    ---------------------
   (+) Dipole Moment


------------------------------------------------------------------------------
                       ORCA ELECTRIC PROPERTIES CALCULATION
------------------------------------------------------------------------------

Dipole Moment Calculation                       ... on
Quadrupole Moment Calculation                   ... off
Polarizability Calculation                      ... off
GBWName                                         ... TMB06_T1.gbw
Electron density file                           ... TMB06_T1.scfp
The origin for moment calculation is the CENTER OF MASS  = ( 0.128534,  0.036235 -0.008375)

-------------
DIPOLE MOMENT
-------------
                                X             Y             Z
Electronic contribution:     97.82908       9.29105      10.90071
Nuclear contribution   :    -95.08812     -10.49452     -10.64317
                        -----------------------------------------
Total Dipole Moment    :      2.74095      -1.20347       0.25754
                        -----------------------------------------
Magnitude (a.u.)       :      3.00458
Magnitude (Debye)      :      7.63704



--------------------
Rotational spectrum 
--------------------
 
Rotational constants in cm-1:     0.011727     0.005648     0.005281 
Rotational constants in MHz :   351.552196   169.313101   158.324155 

 Dipole components along the rotational axes: 
x,y,z [a.u.] :     2.742856    -1.185771     0.313354 
x,y,z [Debye]:     6.971786    -3.013990     0.796482 

 

Timings for individual modules:

Sum of individual times         ...     1332.671 sec (=  22.211 min)
GTO integral calculation        ...        5.303 sec (=   0.088 min)   0.4 %
SCF iterations                  ...     1327.368 sec (=  22.123 min)  99.6 %
                             ****ORCA TERMINATED NORMALLY****
TOTAL RUN TIME: 0 days 0 hours 22 minutes 13 seconds 316 msec
