
                                 *****************
                                 * O   R   C   A *
                                 *****************

           --- An Ab Initio, DFT and Semiempirical electronic structure package ---

                  #######################################################
                  #                        -***-                        #
                  #          Department of theory and spectroscopy      #
                  #               Directorship: Frank Neese             #
                  #        Max Planck Institute fuer Kohlenforschung    #
                  #                Kaiser Wilhelm Platz 1               #
                  #                 D-45470 Muelheim/Ruhr               #
                  #                      Germany                        #
                  #                                                     #
                  #                  All rights reserved                #
                  #                        -***-                        #
                  #######################################################


                         Program Version 4.2.0 -  RELEASE  -


 With contributions from (in alphabetic order):
   Daniel Aravena         : Magnetic Suceptibility
   Michael Atanasov       : Ab Initio Ligand Field Theory (pilot matlab implementation)
   Alexander A. Auer      : GIAO ZORA, VPT2
   Ute Becker             : Parallelization
   Giovanni Bistoni       : ED, misc. LED, open-shell LED, HFLED
   Martin Brehm           : Molecular dynamics
   Dmytro Bykov           : SCF Hessian
   Vijay G. Chilkuri      : MRCI spin determinant printing, contributions to CSF-ICE
   Dipayan Datta          : RHF DLPNO-CCSD density
   Achintya Kumar Dutta   : EOM-CC, STEOM-CC
   Dmitry Ganyushin       : Spin-Orbit,Spin-Spin,Magnetic field MRCI
   Miquel Garcia          : C-PCM Hessian, Gaussian charge scheme
   Yang Guo               : DLPNO-NEVPT2, CIM, IAO-localization
   Andreas Hansen         : Spin unrestricted coupled pair/coupled cluster methods
   Benjamin Helmich-Paris : CASSCF linear response (MC-RPA)
   Lee Huntington         : MR-EOM, pCC
   Robert Izsak           : Overlap fitted RIJCOSX, COSX-SCS-MP3, EOM
   Christian Kollmar      : KDIIS, OOCD, Brueckner-CCSD(T), CCSD density
   Simone Kossmann        : Meta GGA functionals, TD-DFT gradient, OOMP2, MP2 Hessian
   Martin Krupicka        : AUTO-CI
   Lucas Lang             : DCDCAS
   Dagmar Lenk            : GEPOL surface, SMD
   Dimitrios Liakos       : Extrapolation schemes; Compound Job, initial MDCI parallelization
   Dimitrios Manganas     : Further ROCIS development; embedding schemes
   Dimitrios Pantazis     : SARC Basis sets
   Taras Petrenko         : DFT Hessian,TD-DFT gradient, ASA, ECA, R-Raman, ABS, FL, XAS/XES, NRVS
   Peter Pinski           : DLPNO-MP2, DLPNO-MP2 Gradient
   Christoph Reimann      : Effective Core Potentials
   Marius Retegan         : Local ZFS, SOC
   Christoph Riplinger    : Optimizer, TS searches, QM/MM, DLPNO-CCSD(T), (RO)-DLPNO pert. Triples
   Tobias Risthaus        : Range-separated hybrids, TD-DFT gradient, RPA, STAB
   Michael Roemelt        : Original ROCIS implementation
   Masaaki Saitow         : Open-shell DLPNO-CCSD energy and density
   Barbara Sandhoefer     : DKH picture change effects
   Avijit Sen             : IP-ROCIS
   Kantharuban Sivalingam : CASSCF convergence, NEVPT2, FIC-MRCI
   Bernardo de Souza      : ESD, SOC TD-DFT
   Georgi Stoychev        : AutoAux, RI-MP2 NMR
   Willem Van den Heuvel  : Paramagnetic NMR
   Boris Wezisla          : Elementary symmetry handling
   Frank Wennmohs         : Technical directorship


 We gratefully acknowledge several colleagues who have allowed us to
 interface, adapt or use parts of their codes:
   Stefan Grimme, W. Hujo, H. Kruse,             : VdW corrections, initial TS optimization,
                  C. Bannwarth                     DFT functionals, gCP, sTDA/sTD-DF
   Ed Valeev, F. Pavosevic, A. Kumar             : LibInt (2-el integral package), F12 methods
   Garnet Chan, S. Sharma, J. Yang, R. Olivares  : DMRG
   Ulf Ekstrom                                   : XCFun DFT Library
   Mihaly Kallay                                 : mrcc  (arbitrary order and MRCC methods)
   Andreas Klamt, Michael Diedenhofen            : otool_cosmo (COSMO solvation model)
   Jiri Pittner, Ondrej Demel                    : Mk-CCSD
   Frank Weinhold                                : gennbo (NPA and NBO analysis)
   Christopher J. Cramer and Donald G. Truhlar   : smd solvation model
   Lars Goerigk                                  : TD-DFT with DH, B97 family of functionals
   V. Asgeirsson, H. Jonsson                     : NEB implementation
   FAccTs GmbH                                   : IRC, NEB, NEB-TS, Multilevel, MM, QM/MM, CI optimization
   S Lehtola, MJT Oliveira, MAL Marques          : LibXC Library


 Your calculation uses the libint2 library for the computation of 2-el integrals
 For citations please refer to: http://libint.valeyev.net

 Your ORCA version has been built with support for libXC version: 4.2.3
 For citations please refer to: https://tddft.org/programs/libxc/

 This ORCA versions uses:
   CBLAS   interface :  Fast vector & matrix operations
   LAPACKE interface :  Fast linear algebra routines
   SCALAPACK package :  Parallel linear algebra routines


Your calculation utilizes the DFT-NL dispersion correction.
Cite in your paper:
Vydrov, O. A.; Van Voorhis, T. J. Chem. Phys. 2010, 133, 244103
Hujo, W.; Grimme, S. J. Chem. Theory Comput. 2011, 7, 3866 
   

----- Orbital basis set information -----
Your calculation utilizes the basis: def2-TZVPPD
   F. Weigend and R. Ahlrichs, Phys. Chem. Chem. Phys. 7, 3297 (2005).
   D. Rappoport and F. Furche, J. Chem. Phys. 133 134105 (2010).

----- AuxJK basis set information -----
Your calculation utilizes the auxiliary basis: def2/JK
   H-Ba, Hf-Rn: F. Weigend, J. Comput. Chem. 29, 167 (2008).

cite the ECPs for Mo [Def2-ECP] as follows:
Ce-Yb(ecp-28): M. Dolg, H. Stoll, H.Preuss, J. Chem. Phys., 1989, 90, 1730-1734.
Y-Cd(ecp-28), Hf-Hg(ecp-46): D. Andrae,U. Haeussermann, M. Dolg, H. Stoll, H. Preuss, Theor. Chim. Acta, 1990, 77, 123-141.
In-Sb(ecp-28), Tl-Bi(ecp-46): B. Metz, H. Stoll, M. Dolg, J. Chem. Phys., 2000, 113, 2563-2569.
Te-Xe(ecp-28), Po-Rn(ecp-46): K. A. Peterson, D. Figgen, E. Goll, H. Stoll, M. Dolg, J. Chem. Phys., 2003, 119, 11113-11123.
Rb(ecp-28), Cs(ecp-46): T. Leininger, A. Nicklass, W. Kuechle, H. Stoll, M. Dolg, A. Bergner, Chem. Phys. Lett., 1996, 255, 274-280.
Sr(ecp-28), Ba(ecp-46): M. Kaupp, P. V. Schleyer, H. Stoll and H. Preuss, J. Chem. Phys., 1991, 94, 1360-1366.
La(ecp-46): M. Dolg, H. Stoll, A. Savin, H. Preuss, Theor. Chim. Acta, 1989, 75, 173-194.
Lu(ecp-28): X. Cao, M. Dolg, J. Chem. Phys., 2001, 115, 7348-7355.

ECP parameters for Mo [Def2-ECP] have been obtained from:
TURBOMOLE (7.0.2)

================================================================================
                                        WARNINGS
                       Please study these warnings very carefully!
================================================================================


INFO   : the flag for use of LIBINT has been found!

================================================================================
                                       INPUT FILE
================================================================================
NAME = TMB08_T1.in
|  1> #
|  2> # TMB08_T1 wB97M-V/Def2-TZVPPD
|  3> #
|  4> ! wb97m-v def2-tzvppd def2/jk grid4 nofinalgrid
|  5> 
|  6> *xyz -1 1
|  7> O       -0.864683   -0.641223    1.501083 
|  8> Mo       0.288309   -0.030923   -0.005993 
|  9> O       -1.184159   -0.828813   -0.891579 
| 10> S        2.210721   -0.462566    1.360243 
| 11> C        3.288131   -1.501862    0.490518 
| 12> C        2.967024   -1.951648   -0.740634 
| 13> S        1.453819   -1.539049   -1.466752 
| 14> S        0.162904    2.082815    1.150192 
| 15> C        0.198674    3.373932   -0.002877 
| 16> C        0.341525    3.101047   -1.316307 
| 17> S        0.442237    1.474962   -1.896418 
| 18> S       -2.702756   -1.277235    0.090908 
| 19> C       -3.341924    0.299743    0.636465 
| 20> H       -3.337931    0.314090    1.732942 
| 21> H       -2.648387    1.079744    0.273451 
| 22> H       -4.358042    0.459892    0.247281 
| 23> C       -3.587204   -1.408361   -1.466934 
| 24> H       -3.173718   -2.281309   -1.989593 
| 25> H       -4.662596   -1.555426   -1.282985 
| 26> H       -3.398030   -0.511824   -2.074907 
| 27> C       -0.765264   -0.491871    2.877457 
| 28> H       -0.827293    0.572940    3.181404 
| 29> H       -1.595209   -1.039646    3.369476 
| 30> H        0.192972   -0.897436    3.256104 
| 31> H        3.640777   -2.597035   -1.314559 
| 32> H        4.229728   -1.767232    0.982509 
| 33> H        0.401774    3.897233   -2.066529 
| 34> H        0.141166    4.396366    0.384198 
| 35> *
| 36> 
| 37> %maxcore 5000
| 38> 
| 39> %pal
| 40> nprocs = 24
| 41> end
| 42> 
| 43> 
| 44>                          ****END OF INPUT****
================================================================================

                       ****************************
                       * Single Point Calculation *
                       ****************************

---------------------------------
CARTESIAN COORDINATES (ANGSTROEM)
---------------------------------
  O     -0.864683   -0.641223    1.501083
  Mo     0.288309   -0.030923   -0.005993
  O     -1.184159   -0.828813   -0.891579
  S      2.210721   -0.462566    1.360243
  C      3.288131   -1.501862    0.490518
  C      2.967024   -1.951648   -0.740634
  S      1.453819   -1.539049   -1.466752
  S      0.162904    2.082815    1.150192
  C      0.198674    3.373932   -0.002877
  C      0.341525    3.101047   -1.316307
  S      0.442237    1.474962   -1.896418
  S     -2.702756   -1.277235    0.090908
  C     -3.341924    0.299743    0.636465
  H     -3.337931    0.314090    1.732942
  H     -2.648387    1.079744    0.273451
  H     -4.358042    0.459892    0.247281
  C     -3.587204   -1.408361   -1.466934
  H     -3.173718   -2.281309   -1.989593
  H     -4.662596   -1.555426   -1.282985
  H     -3.398030   -0.511824   -2.074907
  C     -0.765264   -0.491871    2.877457
  H     -0.827293    0.572940    3.181404
  H     -1.595209   -1.039646    3.369476
  H      0.192972   -0.897436    3.256104
  H      3.640777   -2.597035   -1.314559
  H      4.229728   -1.767232    0.982509
  H      0.401774    3.897233   -2.066529
  H      0.141166    4.396366    0.384198

----------------------------
CARTESIAN COORDINATES (A.U.)
----------------------------
  NO LB      ZA    FRAG     MASS         X           Y           Z
   0 O     8.0000    0    15.999   -1.634014   -1.211736    2.836636
   1 Mo   14.0000*   0    95.940    0.544825   -0.058436   -0.011325
   2 O     8.0000    0    15.999   -2.237736   -1.566230   -1.684840
   3 S    16.0000    0    32.060    4.177657   -0.874123    2.570487
   4 C     6.0000    0    12.011    6.213667   -2.838108    0.926945
   5 C     6.0000    0    12.011    5.606863   -3.688080   -1.399595
   6 S    16.0000    0    32.060    2.747320   -2.908381   -2.771760
   7 S    16.0000    0    32.060    0.307844    3.935950    2.173548
   8 C     6.0000    0    12.011    0.375439    6.375807   -0.005437
   9 C     6.0000    0    12.011    0.645389    5.860130   -2.487460
  10 S    16.0000    0    32.060    0.835707    2.787274   -3.583711
  11 S    16.0000    0    32.060   -5.107469   -2.413624    0.171791
  12 C     6.0000    0    12.011   -6.315321    0.566432    1.202745
  13 H     1.0000    0     1.008   -6.307775    0.593544    3.274786
  14 H     1.0000    0     1.008   -5.004726    2.040420    0.516748
  15 H     1.0000    0     1.008   -8.235506    0.869070    0.467293
  16 C     6.0000    0    12.011   -6.778833   -2.661417   -2.772104
  17 H     1.0000    0     1.008   -5.997458   -4.311049   -3.759786
  18 H     1.0000    0     1.008   -8.811030   -2.939329   -2.424490
  19 H     1.0000    0     1.008   -6.421346   -0.967207   -3.921006
  20 C     6.0000    0    12.011   -1.446139   -0.929501    5.437606
  21 H     1.0000    0     1.008   -1.563357    1.082700    6.011982
  22 H     1.0000    0     1.008   -3.014508   -1.964646    6.367387
  23 H     1.0000    0     1.008    0.364664   -1.695908    6.153145
  24 H     1.0000    0     1.008    6.880071   -4.907685   -2.484156
  25 H     1.0000    0     1.008    7.993028   -3.339584    1.856673
  26 H     1.0000    0     1.008    0.759243    7.364703   -3.905174
  27 H     1.0000    0     1.008    0.266765    8.307928    0.726029
* core charge reduced due to ECP

--------------------------------
INTERNAL COORDINATES (ANGSTROEM)
--------------------------------
 O      0   0   0     0.000000000000     0.00000000     0.00000000
 Mo     1   0   0     1.993272362684     0.00000000     0.00000000
 O      2   1   0     1.894479618924    76.99085298     0.00000000
 S      2   1   3     2.397620567331    88.72995229   212.80672208
 C      4   2   1     1.731291442635   108.71053675   126.48922557
 C      5   4   2     1.349500795979   120.68399361   358.70181385
 S      6   5   4     1.728373413574   120.79917546   358.31879852
 S      2   1   3     2.412546061922    82.86814566   126.90648818
 C      8   2   1     1.731424476941   109.45748465   212.94454194
 C      9   8   2     1.349063006804   119.98182832   357.24428904
 S     10   9   8     1.729399926706   121.52969308     1.95278325
 S      3   2   1     1.863464473410   119.22810523    11.30509781
 C     12   3   2     1.786904525977   103.89238422    65.32765265
 H     13  12   3     1.096578128538   108.39245957   241.09042197
 H     13  12   3     1.105067552037   107.34563923   358.07690031
 H     13  12   3     1.099821657352   110.54498987   119.45834405
 C     12   3   2     1.796194307291    87.79742846   163.85650724
 H     17  12   3     1.098262861605   106.58193360    68.21126245
 H     17  12   3     1.100878423119   110.23270339   187.49069137
 H     17  12   3     1.099634740891   109.59021631   310.78899121
 C      1   2   3     1.388018568082   132.48221120   184.28351608
 H     21   1   2     1.109077923940   111.78068746    63.55387129
 H     21   1   2     1.109481342795   109.45352917   183.28390864
 H     21   1   2     1.107281694751   111.20256076   302.96685227
 H      6   5   4     1.095380020999   121.87179078   179.02316079
 H      5   4   2     1.095025703529   117.05794995   178.47559350
 H     10   9   8     1.095616327863   121.70124170   182.10202199
 H      9   8   2     1.094762764276   117.37931582   179.57334360

---------------------------
INTERNAL COORDINATES (A.U.)
---------------------------
 O      0   0   0     0.000000000000     0.00000000     0.00000000
 Mo     1   0   0     3.766738875787     0.00000000     0.00000000
 O      2   1   0     3.580047646063    76.99085298     0.00000000
 S      2   1   3     4.530846245313    88.72995229   212.80672208
 C      4   2   1     3.271666684581   108.71053675   126.48922557
 C      5   4   2     2.550186921910   120.68399361   358.70181385
 S      6   5   4     3.266152408806   120.79917546   358.31879852
 S      2   1   3     4.559051342502    82.86814566   126.90648818
 C      8   2   1     3.271918082986   109.45748465   212.94454194
 C      9   8   2     2.549359620263   119.98182832   357.24428904
 S     10   9   8     3.268092237497   121.52969308     1.95278325
 S      3   2   1     3.521437515037   119.22810523    11.30509781
 C     12   3   2     3.376760181561   103.89238422    65.32765265
 H     13  12   3     2.072232347384   108.39245957   241.09042197
 H     13  12   3     2.088275032834   107.34563923   358.07690031
 H     13  12   3     2.078361728551   110.54498987   119.45834405
 C     12   3   2     3.394315324088    87.79742846   163.85650724
 H     17  12   3     2.075416031490   106.58193360    68.21126245
 H     17  12   3     2.080358726439   110.23270339   187.49069137
 H     17  12   3     2.078008507629   109.59021631   310.78899121
 C      1   2   3     2.622974962473   132.48221120   184.28351608
 H     21   1   2     2.095853537424   111.78068746    63.55387129
 H     21   1   2     2.096615888578   109.45352917   183.28390864
 H     21   1   2     2.092459156183   111.20256076   302.96685227
 H      6   5   4     2.069968252256   121.87179078   179.02316079
 H      5   4   2     2.069298689275   117.05794995   178.47559350
 H     10   9   8     2.070414807514   121.70124170   182.10202199
 H      9   8   2     2.068801806096   117.37931582   179.57334360

---------------------
BASIS SET INFORMATION
---------------------
There are 5 groups of distinct atoms

 Group   1 Type O   : 12s7p3d1f contracted to 6s4p3d1f pattern {621111/4111/111/1}
 Group   2 Type Mo  : 7s7p5d2f1g contracted to 6s4p3d2f1g pattern {211111/4111/311/11/1}
 Group   3 Type S   : 15s10p4d1f contracted to 6s6p4d1f pattern {732111/511111/1111/1}
 Group   4 Type C   : 12s6p3d1f contracted to 6s3p3d1f pattern {621111/411/111/1}
 Group   5 Type H   : 5s3p1d contracted to 3s3p1d pattern {311/111/1}

Atom   0O    basis set group =>   1
Atom   1Mo   basis set group =>   2
Atom   2O    basis set group =>   1
Atom   3S    basis set group =>   3
Atom   4C    basis set group =>   4
Atom   5C    basis set group =>   4
Atom   6S    basis set group =>   3
Atom   7S    basis set group =>   3
Atom   8C    basis set group =>   4
Atom   9C    basis set group =>   4
Atom  10S    basis set group =>   3
Atom  11S    basis set group =>   3
Atom  12C    basis set group =>   4
Atom  13H    basis set group =>   5
Atom  14H    basis set group =>   5
Atom  15H    basis set group =>   5
Atom  16C    basis set group =>   4
Atom  17H    basis set group =>   5
Atom  18H    basis set group =>   5
Atom  19H    basis set group =>   5
Atom  20C    basis set group =>   4
Atom  21H    basis set group =>   5
Atom  22H    basis set group =>   5
Atom  23H    basis set group =>   5
Atom  24H    basis set group =>   5
Atom  25H    basis set group =>   5
Atom  26H    basis set group =>   5
Atom  27H    basis set group =>   5
----------------------------------
AUXILIARY/JK BASIS SET INFORMATION
----------------------------------
There are 5 groups of distinct atoms

 Group   1 Type O   : 14s10p6d2f1g contracted to 10s8p4d2f1g pattern {5111111111/31111111/3111/11/1}
 Group   2 Type Mo  : 13s12p10d9f6g3h2i contracted to 11s10p9d8f6g3h2i pattern {31111111111/3111111111/211111111/21111111/111111/111/11}
 Group   3 Type S   : 16s12p10d4f1g contracted to 13s11p9d4f1g pattern {4111111111111/21111111111/211111111/1111/1}
 Group   4 Type C   : 14s10p6d2f1g contracted to 10s8p5d1f1g pattern {5111111111/31111111/21111/2/1}
 Group   5 Type H   : 4s2p2d contracted to 2s2p2d pattern {31/11/11}

Atom   0O    basis set group =>   1
Atom   1Mo   basis set group =>   2
Atom   2O    basis set group =>   1
Atom   3S    basis set group =>   3
Atom   4C    basis set group =>   4
Atom   5C    basis set group =>   4
Atom   6S    basis set group =>   3
Atom   7S    basis set group =>   3
Atom   8C    basis set group =>   4
Atom   9C    basis set group =>   4
Atom  10S    basis set group =>   3
Atom  11S    basis set group =>   3
Atom  12C    basis set group =>   4
Atom  13H    basis set group =>   5
Atom  14H    basis set group =>   5
Atom  15H    basis set group =>   5
Atom  16C    basis set group =>   4
Atom  17H    basis set group =>   5
Atom  18H    basis set group =>   5
Atom  19H    basis set group =>   5
Atom  20C    basis set group =>   4
Atom  21H    basis set group =>   5
Atom  22H    basis set group =>   5
Atom  23H    basis set group =>   5
Atom  24H    basis set group =>   5
Atom  25H    basis set group =>   5
Atom  26H    basis set group =>   5
Atom  27H    basis set group =>   5
-------------------------
ECP PARAMETER INFORMATION
-------------------------

 Group 1, Type Mo ECP Def2-ECP (replacing 28 core electrons, lmax=3)

Atom   1Mo   ECP group =>   1



           ************************************************************
           *        Program running with 24 parallel MPI-processes    *
           *              working on a common directory               *
           ************************************************************
------------------------------------------------------------------------------
                           ORCA GTO INTEGRAL CALCULATION
------------------------------------------------------------------------------

                         BASIS SET STATISTICS AND STARTUP INFO

 # of primitive gaussian shells          ...  489
 # of primitive gaussian functions       ... 1157
 # of contracted shells                  ...  311
 # of contracted basis functions         ...  871
 Highest angular momentum                ...    4
 Maximum contraction depth               ...    7
 Integral package used                   ... LIBINT
 Integral threshhold            Thresh   ...  1.000e-10
 Primitive cut-off              TCut     ...  1.000e-11


------------------------------ INTEGRAL EVALUATION ----------------------------


 * One electron integrals 

   ECP integrals                         ... done
 Pre-screening matrix                    ... done
 Shell pair data                         ... done (   0.011 sec)



           ************************************************************
           *        Program running with 24 parallel MPI-processes    *
           *              working on a common directory               *
           ************************************************************
-------------------------------------------------------------------------------
                                 ORCA SCF
-------------------------------------------------------------------------------

------------
SCF SETTINGS
------------
Hamiltonian:
 Density Functional     Method          .... DFT(GTOs)
 Exchange Functional    Exchange        .... WB97M-V
 Correlation Functional Correlation     .... WB97M-V
 Gradients option       PostSCFGGA      .... off
 Hybrid DFT is turned on
   Fraction HF Exchange ScalHFX         ....  0.150000
   Scaling of DF-GGA-X  ScalDFX         ....  0.000000
   Scaling of DF-GGA-C  ScalDFC         ....  1.000000
   Scaling of DF-LDA-C  ScalLDAC        ....  1.000000
   Perturbative correction              ....  0.000000
   Density functional embedding theory  .... OFF
 Long-range corrected/Screened/Range-Separated Hybrid DFT is turned on
   Amount of maximum screened exact exchange              ....  0.850000
   Range separation parameter mu (erf(mu*r12)/r12)        ....  0.300000
   NL short-range parameter             ....  6.000000
   NL long-range parameter              ....  0.010000


General Settings:
 Integral files         IntName         .... TMB08_T1
 Hartree-Fock type      HFTyp           .... RHF
 Total Charge           Charge          ....   -1
 Multiplicity           Mult            ....    1
 Number of Electrons    NEL             ....  166
 Basis Dimension        Dim             ....  871
 Nuclear Repulsion      ENuc            ....   1966.3539851446 Eh

Convergence Acceleration:
 DIIS                   CNVDIIS         .... on
   Start iteration      DIISMaxIt       ....    12
   Startup error        DIISStart       ....  0.200000
   # of expansion vecs  DIISMaxEq       ....     5
   Bias factor          DIISBfac        ....   1.050
   Max. coefficient     DIISMaxC        ....  10.000
 Newton-Raphson         CNVNR           .... off
 SOSCF                  CNVSOSCF        .... off
 Level Shifting         CNVShift        .... on
   Level shift para.    LevelShift      ....    0.2500
   Turn off err/grad.   ShiftErr        ....    0.0010
 Zerner damping         CNVZerner       .... off
 Static damping         CNVDamp         .... on
   Fraction old density DampFac         ....    0.7000
   Max. Damping (<1)    DampMax         ....    0.9800
   Min. Damping (>=0)   DampMin         ....    0.0000
   Turn off err/grad.   DampErr         ....    0.1000
 Fernandez-Rico         CNVRico         .... off

SCF Procedure:
 Maximum # iterations   MaxIter         ....   125
 SCF integral mode      SCFMode         .... Direct
   Integral package                     .... LIBINT
 Reset frequency        DirectResetFreq ....    20
 Integral Threshold     Thresh          ....  1.000e-10 Eh
 Primitive CutOff       TCut            ....  1.000e-11 Eh

Convergence Tolerance:
 Convergence Check Mode ConvCheckMode   .... Total+1el-Energy
 Convergence forced     ConvForced      .... 0
 Energy Change          TolE            ....  1.000e-06 Eh
 1-El. energy change                    ....  1.000e-03 Eh
 DIIS Error             TolErr          ....  1.000e-06


Diagonalization of the overlap matrix:
Smallest eigenvalue                        ... 2.243e-06
Time for diagonalization                   ...    0.135 sec
Threshold for overlap eigenvalues          ... 1.000e-08
Number of eigenvalues below threshold      ... 0
Time for construction of square roots      ...    0.102 sec
Total time needed                          ...    0.239 sec

-------------------
DFT GRID GENERATION
-------------------

General Integration Accuracy     IntAcc      ...  4.670
Radial Grid Type                 RadialGrid  ... Gauss-Chebyshev
Angular Grid (max. acc.)         AngularGrid ... Lebedev-302
Angular grid pruning method      GridPruning ... 3 (G Style)
Weight generation scheme         WeightScheme... Becke
Basis function cutoff            BFCut       ...    1.0000e-10
Integration weight cutoff        WCut        ...    1.0000e-14
Grids for H and He will be reduced by one unit

# of grid points (after initial pruning)     ... 144858 (   0.0 sec)
# of grid points (after weights+screening)   ... 129902 (   0.1 sec)
nearest neighbour list constructed           ...    0.0 sec
Grid point re-assignment to atoms done       ...    0.0 sec
Grid point division into batches done        ...    0.4 sec
Reduced shell lists constructed in    0.6 sec

Total number of grid points                  ...   129902
Total number of batches                      ...     2042
Average number of points per batch           ...       63
Average number of grid points per atom       ...     4639
Average number of shells per batch           ...   194.17 (62.43%)
Average number of basis functions per batch  ...   554.82 (63.70%)
Average number of large shells per batch     ...   150.22 (77.36%)
Average number of large basis fcns per batch ...   427.05 (76.97%)
Maximum spatial batch extension              ...   3.07,  3.86,  2.91 au
Average spatial batch extension              ...   0.05,  0.05,  0.05 au

Time for grid setup =    0.697 sec

------------------------------
INITIAL GUESS: MODEL POTENTIAL
------------------------------
Loading Hartree-Fock densities                     ... done
  calling /sw/apps/orca/orca_4_2_0_linux_x86-64_openmpi314/orca TMB08_T1_atom42.inp > TMB08_T1_atom42.out in order to generate an atomic fitting density for atom 1 (Mo with ECP) on-the-fly... 
    atom 1 (Mo), assumed electronic state with S=5: 1s2 2s2 2p6 3s2 3p6 4s2 3d10 4p6 5s2 4d4           ... done
Calculating cut-offs                               ... done
Setting up the integral package                    ... done
Initializing the effective Hamiltonian             ... done
Starting the Coulomb interaction                   ... done (   0.1 sec)
Reading the grid                                   ... done
Mapping shells                                     ... done
Starting the XC term evaluation                    ... done (   0.4 sec)
  promolecular density results
     # of electrons  =    192.994140984
     EX              =   -299.703925026
     EC              =     -7.656070545
     EX+EC           =   -307.359995571
Transforming the Hamiltonian                       ... done (   0.1 sec)
Diagonalizing the Hamiltonian                      ... done (   0.1 sec)
Back transforming the eigenvectors                 ... done (   0.0 sec)
Now organizing SCF variables                       ... done
                      ------------------
                      INITIAL GUESS DONE (   3.3 sec)
                      ------------------
--------------
SCF ITERATIONS
--------------
ITER       Energy         Delta-E        Max-DP      RMS-DP      [F,P]     Damp
               ***  Starting incremental Fock matrix formation  ***
  0  -2484.1007720551   0.000000000000 0.45862149  0.00187556  0.4195970 0.7000
  1  -2484.4268892691  -0.326117214019 0.23478679  0.00131584  0.2847065 0.7000
                               ***Turning on DIIS***
  2  -2484.5565956737  -0.129706404557 0.07757263  0.00081662  0.1942063 0.7000
  3  -2484.6370501559  -0.080454482180 0.08849713  0.00064863  0.1366554 0.7000
  4  -2484.6954967713  -0.058446615459 0.19389003  0.00157155  0.0981189 0.0000
  5  -2484.8330294339  -0.137532662609 0.03879566  0.00017233  0.0063938 0.0000
  6  -2484.8338787715  -0.000849337563 0.00710277  0.00006901  0.0050966 0.0000
  7  -2484.8342177698  -0.000338998268 0.01494135  0.00007480  0.0036241 0.0000
  8  -2484.8343908148  -0.000173044994 0.00673753  0.00004905  0.0015689 0.0000
  9  -2484.8344976814  -0.000106866687 0.01224523  0.00006387  0.0007887 0.0000
 10  -2484.8345585074  -0.000060825986 0.00525992  0.00002202  0.0004753 0.0000
 11  -2484.8345680899  -0.000009582503 0.00484338  0.00001903  0.0004896 0.0000
 12  -2484.8345726219  -0.000004532000 0.00271028  0.00001402  0.0001870 0.0000
 13  -2484.8345746513  -0.000002029415 0.00406886  0.00001204  0.0002103 0.0000
                 **** Energy Check signals convergence ****

               *****************************************************
               *                     SUCCESS                       *
               *           SCF CONVERGED AFTER  14 CYCLES          *
               *****************************************************


Setting up the DFT-NL grid :

General Integration Accuracy     IntAcc      ...  4.340
Radial Grid Type                 RadialGrid  ... Gauss-Chebyshev
Angular Grid (max. acc.)         AngularGrid ... Lebedev-110
Angular grid pruning method      GridPruning ... 3 (G Style)
Weight generation scheme         WeightScheme... Becke
Basis function cutoff            BFCut       ...    1.0000e-10
Integration weight cutoff        WCut        ...    1.0000e-14
Grids for H and He will be reduced by one unit

# of grid points (after initial pruning)     ...  37656 (   0.0 sec)
# of grid points (after weights+screening)   ...  34291 (   0.0 sec)
nearest neighbour list constructed           ...    0.0 sec
Grid point re-assignment to atoms done       ...    0.0 sec
Grid point division into batches done        ...    0.0 sec
Reduced shell lists constructed in    0.1 sec

Total number of grid points                  ...    34291
Total number of batches                      ...      551
Average number of points per batch           ...       62
Average number of grid points per atom       ...     1225
Average number of shells per batch           ...   196.96 (63.33%)
Average number of basis functions per batch  ...   563.21 (64.66%)
Average number of large shells per batch     ...   152.42 (77.39%)
Average number of large basis fcns per batch ...   433.92 (77.04%)
Maximum spatial batch extension              ...   4.24,  4.80,  3.13 au
Average spatial batch extension              ...   0.08,  0.07,  0.08 au

Final grid set up in    0.1 sec

-------------------------------------------------------------------------------
                         DFT-NL dispersion correction                          
-------------------------------------------------------------------------------

SC Energy -2484.834575272 
NL    Energy 0.621254577 
SC+NL Energy -2484.213320696 
NL done in    0.4 sec
-------------------------------------------------------------------------------

----------------
TOTAL SCF ENERGY
----------------

Total Energy       :        -2484.21332070 Eh          -67598.88112 eV

Components:
Nuclear Repulsion  :         1966.35398514 Eh           53507.21219 eV
Electronic Energy  :        -4450.56730584 Eh         -121106.09331 eV
One Electron Energy:        -7388.61435048 Eh         -201054.41789 eV
Two Electron Energy:         2938.04704464 Eh           79948.32458 eV

Virial components:
Potential Energy   :        -4918.55585604 Eh         -133840.70917 eV
Kinetic Energy     :         2434.34253534 Eh           66241.82806 eV
Virial Ratio       :            2.02048635


DFT components:
N(Alpha)           :       83.000016951047 electrons
N(Beta)            :       83.000016951047 electrons
N(Total)           :      166.000033902094 electrons
E(X)               :     -139.989931095598 Eh       
E(C)               :       -6.260641777307 Eh       
NL Energy, E(C,NL) :        0.621254576844 Eh       
E(XC)              :     -145.629318296061 Eh       
DFET-embed. en.    :        0.000000000000 Eh       

---------------
SCF CONVERGENCE
---------------

  Last Energy change         ...   -6.2102e-07  Tolerance :   1.0000e-06
  Last MAX-Density change    ...    5.0924e-03  Tolerance :   1.0000e-05
  Last RMS-Density change    ...    1.3289e-05  Tolerance :   1.0000e-06
  Last DIIS Error            ...    9.9434e-05  Tolerance :   1.0000e-06

             **** THE GBW FILE WAS UPDATED (TMB08_T1.gbw) ****
             **** DENSITY FILE WAS UPDATED (TMB08_T1.scfp) ****
             **** ENERGY FILE WAS UPDATED (TMB08_T1.en.tmp) ****
             **** THE GBW FILE WAS UPDATED (TMB08_T1.gbw) ****
             **** DENSITY FILE WAS UPDATED (TMB08_T1.scfp) ****
----------------
ORBITAL ENERGIES
----------------

  NO   OCC          E(Eh)            E(eV) 
   0   2.0000     -89.175229     -2426.5814 
   1   2.0000     -89.022491     -2422.4251 
   2   2.0000     -89.020663     -2422.3754 
   3   2.0000     -89.019841     -2422.3530 
   4   2.0000     -89.018618     -2422.3198 
   5   2.0000     -19.225168      -523.1434 
   6   2.0000     -19.192563      -522.2562 
   7   2.0000     -10.286353      -279.9059 
   8   2.0000     -10.285277      -279.8766 
   9   2.0000     -10.261266      -279.2232 
  10   2.0000     -10.225552      -278.2514 
  11   2.0000     -10.224764      -278.2300 
  12   2.0000     -10.224377      -278.2194 
  13   2.0000     -10.223535      -278.1965 
  14   2.0000      -8.094901      -220.2734 
  15   2.0000      -7.952225      -216.3910 
  16   2.0000      -7.950177      -216.3353 
  17   2.0000      -7.949174      -216.3080 
  18   2.0000      -7.947818      -216.2711 
  19   2.0000      -6.003858      -163.3733 
  20   2.0000      -6.002648      -163.3403 
  21   2.0000      -5.998895      -163.2382 
  22   2.0000      -5.861629      -159.5030 
  23   2.0000      -5.859569      -159.4470 
  24   2.0000      -5.858608      -159.4208 
  25   2.0000      -5.857402      -159.3880 
  26   2.0000      -5.857349      -159.3866 
  27   2.0000      -5.856856      -159.3731 
  28   2.0000      -5.855183      -159.3276 
  29   2.0000      -5.855000      -159.3227 
  30   2.0000      -5.854476      -159.3084 
  31   2.0000      -5.853656      -159.2861 
  32   2.0000      -5.852844      -159.2640 
  33   2.0000      -5.852507      -159.2548 
  34   2.0000      -2.599062       -70.7241 
  35   2.0000      -1.600448       -43.5504 
  36   2.0000      -1.592318       -43.3292 
  37   2.0000      -1.576975       -42.9117 
  38   2.0000      -0.989014       -26.9124 
  39   2.0000      -0.957513       -26.0553 
  40   2.0000      -0.843945       -22.9649 
  41   2.0000      -0.798015       -21.7151 
  42   2.0000      -0.795267       -21.6403 
  43   2.0000      -0.749847       -20.4044 
  44   2.0000      -0.696309       -18.9475 
  45   2.0000      -0.693311       -18.8659 
  46   2.0000      -0.661126       -17.9902 
  47   2.0000      -0.642968       -17.4961 
  48   2.0000      -0.626405       -17.0453 
  49   2.0000      -0.612512       -16.6673 
  50   2.0000      -0.497954       -13.5500 
  51   2.0000      -0.493236       -13.4216 
  52   2.0000      -0.488277       -13.2867 
  53   2.0000      -0.482821       -13.1382 
  54   2.0000      -0.469180       -12.7670 
  55   2.0000      -0.447241       -12.1700 
  56   2.0000      -0.443956       -12.0807 
  57   2.0000      -0.441142       -12.0041 
  58   2.0000      -0.433689       -11.8013 
  59   2.0000      -0.431520       -11.7423 
  60   2.0000      -0.419588       -11.4176 
  61   2.0000      -0.400600       -10.9009 
  62   2.0000      -0.382889       -10.4189 
  63   2.0000      -0.362787        -9.8719 
  64   2.0000      -0.349059        -9.4984 
  65   2.0000      -0.334312        -9.0971 
  66   2.0000      -0.329061        -8.9542 
  67   2.0000      -0.319291        -8.6883 
  68   2.0000      -0.310978        -8.4621 
  69   2.0000      -0.302436        -8.2297 
  70   2.0000      -0.293693        -7.9918 
  71   2.0000      -0.282282        -7.6813 
  72   2.0000      -0.263610        -7.1732 
  73   2.0000      -0.259768        -7.0686 
  74   2.0000      -0.251609        -6.8466 
  75   2.0000      -0.231134        -6.2895 
  76   2.0000      -0.213296        -5.8041 
  77   2.0000      -0.207273        -5.6402 
  78   2.0000      -0.193747        -5.2721 
  79   2.0000      -0.186500        -5.0749 
  80   2.0000      -0.164226        -4.4688 
  81   2.0000      -0.136312        -3.7092 
  82   2.0000      -0.118062        -3.2126 
  83   0.0000       0.088263         2.4018 
  84   0.0000       0.110522         3.0075 
  85   0.0000       0.113258         3.0819 
  86   0.0000       0.116867         3.1801 
  87   0.0000       0.126678         3.4471 
  88   0.0000       0.129981         3.5370 
  89   0.0000       0.133371         3.6292 
  90   0.0000       0.133661         3.6371 
  91   0.0000       0.136888         3.7249 
  92   0.0000       0.143681         3.9098 
  93   0.0000       0.148074         4.0293 
  94   0.0000       0.154648         4.2082 
  95   0.0000       0.159514         4.3406 
  96   0.0000       0.164584         4.4786 
  97   0.0000       0.166189         4.5222 
  98   0.0000       0.170598         4.6422 
  99   0.0000       0.171905         4.6778 
 100   0.0000       0.173854         4.7308 
 101   0.0000       0.178575         4.8593 
 102   0.0000       0.189482         5.1561 
 103   0.0000       0.193707         5.2710 
 104   0.0000       0.195212         5.3120 
 105   0.0000       0.199445         5.4272 
 106   0.0000       0.209665         5.7053 
 107   0.0000       0.213718         5.8156 
 108   0.0000       0.216405         5.8887 
 109   0.0000       0.220530         6.0009 
 110   0.0000       0.223496         6.0816 
 111   0.0000       0.224917         6.1203 
 112   0.0000       0.226093         6.1523 
 113   0.0000       0.231886         6.3099 
 114   0.0000       0.234026         6.3682 
 115   0.0000       0.239457         6.5160 
 116   0.0000       0.249227         6.7818 
 117   0.0000       0.256008         6.9663 
 118   0.0000       0.257042         6.9945 
 119   0.0000       0.259530         7.0622 
 120   0.0000       0.263247         7.1633 
 121   0.0000       0.264205         7.1894 
 122   0.0000       0.268284         7.3004 
 123   0.0000       0.272092         7.4040 
 124   0.0000       0.275137         7.4868 
 125   0.0000       0.279252         7.5988 
 126   0.0000       0.282217         7.6795 
 127   0.0000       0.287832         7.8323 
 128   0.0000       0.290102         7.8941 
 129   0.0000       0.292607         7.9622 
 130   0.0000       0.296861         8.0780 
 131   0.0000       0.300861         8.1869 
 132   0.0000       0.304236         8.2787 
 133   0.0000       0.305451         8.3118 
 134   0.0000       0.312160         8.4943 
 135   0.0000       0.316873         8.6225 
 136   0.0000       0.317990         8.6530 
 137   0.0000       0.322282         8.7697 
 138   0.0000       0.327600         8.9144 
 139   0.0000       0.332684         9.0528 
 140   0.0000       0.333850         9.0845 
 141   0.0000       0.342260         9.3134 
 142   0.0000       0.345983         9.4147 
 143   0.0000       0.349162         9.5012 
 144   0.0000       0.351919         9.5762 
 145   0.0000       0.359867         9.7925 
 146   0.0000       0.360468         9.8088 
 147   0.0000       0.367306         9.9949 
 148   0.0000       0.367535        10.0011 
 149   0.0000       0.372393        10.1333 
 150   0.0000       0.372966        10.1489 
 151   0.0000       0.378369        10.2959 
 152   0.0000       0.381301        10.3757 
 153   0.0000       0.381892        10.3918 
 154   0.0000       0.383998        10.4491 
 155   0.0000       0.388107        10.5609 
 156   0.0000       0.389342        10.5945 
 157   0.0000       0.393831        10.7167 
 158   0.0000       0.396496        10.7892 
 159   0.0000       0.398152        10.8343 
 160   0.0000       0.401795        10.9334 
 161   0.0000       0.404217        10.9993 
 162   0.0000       0.408982        11.1290 
 163   0.0000       0.411506        11.1977 
 164   0.0000       0.413614        11.2550 
 165   0.0000       0.416888        11.3441 
 166   0.0000       0.420551        11.4438 
 167   0.0000       0.422434        11.4950 
 168   0.0000       0.423752        11.5309 
 169   0.0000       0.428582        11.6623 
 170   0.0000       0.433488        11.7958 
 171   0.0000       0.433851        11.8057 
 172   0.0000       0.436696        11.8831 
 173   0.0000       0.438006        11.9188 
 174   0.0000       0.442879        12.0514 
 175   0.0000       0.444167        12.0864 
 176   0.0000       0.446809        12.1583 
 177   0.0000       0.449976        12.2445 
 178   0.0000       0.451324        12.2811 
 179   0.0000       0.457468        12.4483 
 180   0.0000       0.460709        12.5365 
 181   0.0000       0.463470        12.6117 
 182   0.0000       0.466113        12.6836 
 183   0.0000       0.470259        12.7964 
 184   0.0000       0.473275        12.8785 
 185   0.0000       0.477652        12.9976 
 186   0.0000       0.480996        13.0886 
 187   0.0000       0.484144        13.1742 
 188   0.0000       0.487001        13.2520 
 189   0.0000       0.488563        13.2945 
 190   0.0000       0.491577        13.3765 
 191   0.0000       0.493547        13.4301 
 192   0.0000       0.494524        13.4567 
 193   0.0000       0.501042        13.6341 
 194   0.0000       0.502717        13.6796 
 195   0.0000       0.507037        13.7972 
 196   0.0000       0.508204        13.8289 
 197   0.0000       0.511781        13.9263 
 198   0.0000       0.513884        13.9835 
 199   0.0000       0.517990        14.0952 
 200   0.0000       0.522009        14.2046 
 201   0.0000       0.525921        14.3110 
 202   0.0000       0.529445        14.4069 
 203   0.0000       0.535080        14.5603 
 204   0.0000       0.536222        14.5913 
 205   0.0000       0.539634        14.6842 
 206   0.0000       0.542615        14.7653 
 207   0.0000       0.547884        14.9087 
 208   0.0000       0.552344        15.0301 
 209   0.0000       0.553994        15.0749 
 210   0.0000       0.559080        15.2133 
 211   0.0000       0.563536        15.3346 
 212   0.0000       0.566104        15.4045 
 213   0.0000       0.569684        15.5019 
 214   0.0000       0.576244        15.6804 
 215   0.0000       0.577443        15.7130 
 216   0.0000       0.579908        15.7801 
 217   0.0000       0.582640        15.8544 
 218   0.0000       0.584660        15.9094 
 219   0.0000       0.588185        16.0053 
 220   0.0000       0.592334        16.1182 
 221   0.0000       0.597163        16.2496 
 222   0.0000       0.598555        16.2875 
 223   0.0000       0.599848        16.3227 
 224   0.0000       0.601757        16.3747 
 225   0.0000       0.606761        16.5108 
 226   0.0000       0.609883        16.5958 
 227   0.0000       0.613606        16.6971 
 228   0.0000       0.615504        16.7487 
 229   0.0000       0.618213        16.8224 
 230   0.0000       0.621427        16.9099 
 231   0.0000       0.628773        17.1098 
 232   0.0000       0.630253        17.1501 
 233   0.0000       0.631821        17.1927 
 234   0.0000       0.637026        17.3344 
 235   0.0000       0.639697        17.4070 
 236   0.0000       0.643936        17.5224 
 237   0.0000       0.650218        17.6933 
 238   0.0000       0.653692        17.7879 
 239   0.0000       0.656930        17.8760 
 240   0.0000       0.661493        18.0002 
 241   0.0000       0.666070        18.1247 
 242   0.0000       0.667759        18.1706 
 243   0.0000       0.675955        18.3937 
 244   0.0000       0.678437        18.4612 
 245   0.0000       0.686866        18.6906 
 246   0.0000       0.690317        18.7845 
 247   0.0000       0.692564        18.8456 
 248   0.0000       0.694836        18.9074 
 249   0.0000       0.697660        18.9843 
 250   0.0000       0.705879        19.2079 
 251   0.0000       0.709178        19.2977 
 252   0.0000       0.715513        19.4701 
 253   0.0000       0.723150        19.6779 
 254   0.0000       0.724502        19.7147 
 255   0.0000       0.727476        19.7956 
 256   0.0000       0.733397        19.9567 
 257   0.0000       0.736793        20.0491 
 258   0.0000       0.740822        20.1588 
 259   0.0000       0.742767        20.2117 
 260   0.0000       0.747845        20.3499 
 261   0.0000       0.753565        20.5055 
 262   0.0000       0.757698        20.6180 
 263   0.0000       0.761640        20.7253 
 264   0.0000       0.770566        20.9682 
 265   0.0000       0.772913        21.0320 
 266   0.0000       0.779424        21.2092 
 267   0.0000       0.781689        21.2708 
 268   0.0000       0.785770        21.3819 
 269   0.0000       0.790640        21.5144 
 270   0.0000       0.792691        21.5702 
 271   0.0000       0.793650        21.5963 
 272   0.0000       0.800928        21.7943 
 273   0.0000       0.803912        21.8756 
 274   0.0000       0.808003        21.9869 
 275   0.0000       0.811370        22.0785 
 276   0.0000       0.818762        22.2796 
 277   0.0000       0.822837        22.3905 
 278   0.0000       0.826351        22.4862 
 279   0.0000       0.828091        22.5335 
 280   0.0000       0.831583        22.6285 
 281   0.0000       0.836537        22.7633 
 282   0.0000       0.837044        22.7771 
 283   0.0000       0.838598        22.8194 
 284   0.0000       0.845346        23.0030 
 285   0.0000       0.848779        23.0964 
 286   0.0000       0.855267        23.2730 
 287   0.0000       0.856198        23.2983 
 288   0.0000       0.861961        23.4551 
 289   0.0000       0.864189        23.5158 
 290   0.0000       0.867846        23.6153 
 291   0.0000       0.869726        23.6664 
 292   0.0000       0.871316        23.7097 
 293   0.0000       0.874567        23.7982 
 294   0.0000       0.876667        23.8553 
 295   0.0000       0.879812        23.9409 
 296   0.0000       0.883374        24.0378 
 297   0.0000       0.886673        24.1276 
 298   0.0000       0.889748        24.2113 
 299   0.0000       0.891998        24.2725 
 300   0.0000       0.897539        24.4233 
 301   0.0000       0.901330        24.5264 
 302   0.0000       0.904596        24.6153 
 303   0.0000       0.908005        24.7081 
 304   0.0000       0.910920        24.7874 
 305   0.0000       0.914433        24.8830 
 306   0.0000       0.919070        25.0092 
 307   0.0000       0.923704        25.1353 
 308   0.0000       0.925982        25.1973 
 309   0.0000       0.928180        25.2571 
 310   0.0000       0.935169        25.4472 
 311   0.0000       0.936814        25.4920 
 312   0.0000       0.944962        25.7137 
 313   0.0000       0.953511        25.9464 
 314   0.0000       0.956022        26.0147 
 315   0.0000       0.965059        26.2606 
 316   0.0000       0.966593        26.3023 
 317   0.0000       0.968975        26.3672 
 318   0.0000       0.975374        26.5413 
 319   0.0000       0.982328        26.7305 
 320   0.0000       0.990433        26.9510 
 321   0.0000       0.992370        27.0038 
 322   0.0000       0.997734        27.1497 
 323   0.0000       1.000641        27.2288 
 324   0.0000       1.007161        27.4063 
 325   0.0000       1.011571        27.5262 
 326   0.0000       1.014977        27.6189 
 327   0.0000       1.024971        27.8909 
 328   0.0000       1.028448        27.9855 
 329   0.0000       1.031063        28.0566 
 330   0.0000       1.037131        28.2218 
 331   0.0000       1.046309        28.4715 
 332   0.0000       1.049938        28.5703 
 333   0.0000       1.056250        28.7420 
 334   0.0000       1.062248        28.9052 
 335   0.0000       1.065675        28.9985 
 336   0.0000       1.073238        29.2043 
 337   0.0000       1.080287        29.3961 
 338   0.0000       1.084018        29.4976 
 339   0.0000       1.089622        29.6501 
 340   0.0000       1.092996        29.7419 
 341   0.0000       1.100860        29.9559 
 342   0.0000       1.109500        30.1910 
 343   0.0000       1.116360        30.3777 
 344   0.0000       1.122835        30.5539 
 345   0.0000       1.124837        30.6084 
 346   0.0000       1.131021        30.7766 
 347   0.0000       1.140055        31.0225 
 348   0.0000       1.144491        31.1432 
 349   0.0000       1.149513        31.2799 
 350   0.0000       1.153059        31.3763 
 351   0.0000       1.158867        31.5344 
 352   0.0000       1.165973        31.7277 
 353   0.0000       1.173147        31.9229 
 354   0.0000       1.180412        32.1206 
 355   0.0000       1.187799        32.3217 
 356   0.0000       1.200658        32.6716 
 357   0.0000       1.208734        32.8913 
 358   0.0000       1.214994        33.0617 
 359   0.0000       1.215990        33.0888 
 360   0.0000       1.220767        33.2188 
 361   0.0000       1.236114        33.6364 
 362   0.0000       1.241088        33.7717 
 363   0.0000       1.243640        33.8412 
 364   0.0000       1.256722        34.1971 
 365   0.0000       1.270580        34.5742 
 366   0.0000       1.279725        34.8231 
 367   0.0000       1.293507        35.1981 
 368   0.0000       1.297374        35.3033 
 369   0.0000       1.304574        35.4993 
 370   0.0000       1.308169        35.5971 
 371   0.0000       1.311540        35.6888 
 372   0.0000       1.322824        35.9959 
 373   0.0000       1.331649        36.2360 
 374   0.0000       1.333293        36.2807 
 375   0.0000       1.345606        36.6158 
 376   0.0000       1.355299        36.8796 
 377   0.0000       1.361458        37.0472 
 378   0.0000       1.364984        37.1431 
 379   0.0000       1.370576        37.2953 
 380   0.0000       1.380639        37.5691 
 381   0.0000       1.386323        37.7238 
 382   0.0000       1.390040        37.8249 
 383   0.0000       1.401458        38.1356 
 384   0.0000       1.407364        38.2963 
 385   0.0000       1.410834        38.3907 
 386   0.0000       1.418953        38.6117 
 387   0.0000       1.442814        39.2610 
 388   0.0000       1.446471        39.3605 
 389   0.0000       1.450042        39.4576 
 390   0.0000       1.455317        39.6012 
 391   0.0000       1.457215        39.6528 
 392   0.0000       1.474926        40.1348 
 393   0.0000       1.482095        40.3298 
 394   0.0000       1.484940        40.4073 
 395   0.0000       1.487679        40.4818 
 396   0.0000       1.501346        40.8537 
 397   0.0000       1.504608        40.9425 
 398   0.0000       1.505320        40.9618 
 399   0.0000       1.514184        41.2030 
 400   0.0000       1.521006        41.3887 
 401   0.0000       1.526786        41.5460 
 402   0.0000       1.542807        41.9819 
 403   0.0000       1.546666        42.0869 
 404   0.0000       1.551313        42.2134 
 405   0.0000       1.555727        42.3335 
 406   0.0000       1.559778        42.4437 
 407   0.0000       1.570854        42.7451 
 408   0.0000       1.577659        42.9303 
 409   0.0000       1.583888        43.0998 
 410   0.0000       1.590090        43.2686 
 411   0.0000       1.602402        43.6036 
 412   0.0000       1.607212        43.7345 
 413   0.0000       1.612451        43.8770 
 414   0.0000       1.620648        44.1001 
 415   0.0000       1.622544        44.1517 
 416   0.0000       1.625169        44.2231 
 417   0.0000       1.638805        44.5942 
 418   0.0000       1.644419        44.7469 
 419   0.0000       1.646297        44.7980 
 420   0.0000       1.658854        45.1397 
 421   0.0000       1.662611        45.2420 
 422   0.0000       1.682715        45.7890 
 423   0.0000       1.693622        46.0858 
 424   0.0000       1.702338        46.3230 
 425   0.0000       1.706401        46.4335 
 426   0.0000       1.724538        46.9271 
 427   0.0000       1.735292        47.2197 
 428   0.0000       1.740459        47.3603 
 429   0.0000       1.752569        47.6898 
 430   0.0000       1.755997        47.7831 
 431   0.0000       1.763308        47.9820 
 432   0.0000       1.771594        48.2075 
 433   0.0000       1.783200        48.5233 
 434   0.0000       1.787315        48.6353 
 435   0.0000       1.810961        49.2788 
 436   0.0000       1.813588        49.3503 
 437   0.0000       1.824954        49.6595 
 438   0.0000       1.834971        49.9321 
 439   0.0000       1.840354        50.0786 
 440   0.0000       1.844243        50.1844 
 441   0.0000       1.853539        50.4374 
 442   0.0000       1.857516        50.5456 
 443   0.0000       1.864690        50.7408 
 444   0.0000       1.875194        51.0266 
 445   0.0000       1.882123        51.2152 
 446   0.0000       1.890349        51.4390 
 447   0.0000       1.895741        51.5857 
 448   0.0000       1.896654        51.6106 
 449   0.0000       1.904726        51.8302 
 450   0.0000       1.919601        52.2350 
 451   0.0000       1.926718        52.4287 
 452   0.0000       1.932195        52.5777 
 453   0.0000       1.937836        52.7312 
 454   0.0000       1.940505        52.8038 
 455   0.0000       1.946198        52.9587 
 456   0.0000       1.949436        53.0469 
 457   0.0000       1.955272        53.2057 
 458   0.0000       1.960662        53.3523 
 459   0.0000       1.964776        53.4643 
 460   0.0000       1.972743        53.6811 
 461   0.0000       1.982551        53.9480 
 462   0.0000       1.989318        54.1321 
 463   0.0000       1.990026        54.1514 
 464   0.0000       1.994027        54.2602 
 465   0.0000       2.002581        54.4930 
 466   0.0000       2.008873        54.6642 
 467   0.0000       2.011295        54.7301 
 468   0.0000       2.015873        54.8547 
 469   0.0000       2.019959        54.9659 
 470   0.0000       2.024235        55.0822 
 471   0.0000       2.028626        55.2017 
 472   0.0000       2.033380        55.3311 
 473   0.0000       2.036064        55.4041 
 474   0.0000       2.042871        55.5894 
 475   0.0000       2.052126        55.8412 
 476   0.0000       2.053752        55.8854 
 477   0.0000       2.064276        56.1718 
 478   0.0000       2.067715        56.2654 
 479   0.0000       2.071672        56.3730 
 480   0.0000       2.081048        56.6282 
 481   0.0000       2.094642        56.9981 
 482   0.0000       2.097764        57.0831 
 483   0.0000       2.103411        57.2367 
 484   0.0000       2.111688        57.4619 
 485   0.0000       2.115510        57.5660 
 486   0.0000       2.123445        57.7819 
 487   0.0000       2.124315        57.8056 
 488   0.0000       2.133296        58.0499 
 489   0.0000       2.141865        58.2831 
 490   0.0000       2.150607        58.5210 
 491   0.0000       2.158129        58.7257 
 492   0.0000       2.168662        59.0123 
 493   0.0000       2.172866        59.1267 
 494   0.0000       2.185257        59.4639 
 495   0.0000       2.198537        59.8252 
 496   0.0000       2.200904        59.8896 
 497   0.0000       2.210530        60.1516 
 498   0.0000       2.218950        60.3807 
 499   0.0000       2.223614        60.5076 
 500   0.0000       2.226067        60.5744 
 501   0.0000       2.237644        60.8894 
 502   0.0000       2.241051        60.9821 
 503   0.0000       2.253966        61.3335 
 504   0.0000       2.259079        61.4727 
 505   0.0000       2.265334        61.6429 
 506   0.0000       2.268922        61.7405 
 507   0.0000       2.280881        62.0659 
 508   0.0000       2.287771        62.2534 
 509   0.0000       2.292706        62.3877 
 510   0.0000       2.297984        62.5313 
 511   0.0000       2.303951        62.6937 
 512   0.0000       2.313250        62.9467 
 513   0.0000       2.317822        63.0711 
 514   0.0000       2.335111        63.5416 
 515   0.0000       2.341420        63.7133 
 516   0.0000       2.343616        63.7730 
 517   0.0000       2.352068        64.0030 
 518   0.0000       2.366324        64.3910 
 519   0.0000       2.372716        64.5649 
 520   0.0000       2.383269        64.8520 
 521   0.0000       2.404083        65.4184 
 522   0.0000       2.411172        65.6113 
 523   0.0000       2.412884        65.6579 
 524   0.0000       2.417869        65.7936 
 525   0.0000       2.425442        65.9996 
 526   0.0000       2.432104        66.1809 
 527   0.0000       2.450200        66.6733 
 528   0.0000       2.469951        67.2108 
 529   0.0000       2.474161        67.3253 
 530   0.0000       2.487118        67.6779 
 531   0.0000       2.489759        67.7498 
 532   0.0000       2.498988        68.0009 
 533   0.0000       2.513514        68.3962 
 534   0.0000       2.521710        68.6192 
 535   0.0000       2.522419        68.6385 
 536   0.0000       2.539020        69.0903 
 537   0.0000       2.544429        69.2374 
 538   0.0000       2.553255        69.4776 
 539   0.0000       2.561282        69.6960 
 540   0.0000       2.578798        70.1727 
 541   0.0000       2.592157        70.5362 
 542   0.0000       2.603378        70.8415 
 543   0.0000       2.613111        71.1064 
 544   0.0000       2.635230        71.7083 
 545   0.0000       2.645772        71.9951 
 546   0.0000       2.664269        72.4985 
 547   0.0000       2.681832        72.9763 
 548   0.0000       2.703222        73.5584 
 549   0.0000       2.708862        73.7119 
 550   0.0000       2.724601        74.1402 
 551   0.0000       2.746422        74.7339 
 552   0.0000       2.777255        75.5730 
 553   0.0000       2.781895        75.6992 
 554   0.0000       2.800198        76.1972 
 555   0.0000       2.808511        76.4235 
 556   0.0000       2.827983        76.9533 
 557   0.0000       2.855991        77.7155 
 558   0.0000       2.864103        77.9362 
 559   0.0000       2.872112        78.1541 
 560   0.0000       2.881537        78.4106 
 561   0.0000       2.895624        78.7939 
 562   0.0000       2.902625        78.9845 
 563   0.0000       2.913476        79.2797 
 564   0.0000       2.917151        79.3797 
 565   0.0000       2.947611        80.2086 
 566   0.0000       2.954328        80.3913 
 567   0.0000       2.978528        81.0499 
 568   0.0000       2.987708        81.2997 
 569   0.0000       2.989769        81.3557 
 570   0.0000       2.996524        81.5396 
 571   0.0000       2.997623        81.5695 
 572   0.0000       3.003918        81.7408 
 573   0.0000       3.019493        82.1646 
 574   0.0000       3.027375        82.3791 
 575   0.0000       3.028032        82.3969 
 576   0.0000       3.037280        82.6486 
 577   0.0000       3.039090        82.6979 
 578   0.0000       3.050953        83.0206 
 579   0.0000       3.054616        83.1203 
 580   0.0000       3.062612        83.3379 
 581   0.0000       3.072201        83.5988 
 582   0.0000       3.074695        83.6667 
 583   0.0000       3.100928        84.3805 
 584   0.0000       3.107909        84.5705 
 585   0.0000       3.117486        84.8311 
 586   0.0000       3.120722        84.9192 
 587   0.0000       3.139403        85.4275 
 588   0.0000       3.146920        85.6321 
 589   0.0000       3.159884        85.9848 
 590   0.0000       3.168493        86.2191 
 591   0.0000       3.178296        86.4858 
 592   0.0000       3.183156        86.6181 
 593   0.0000       3.201501        87.1173 
 594   0.0000       3.213957        87.4562 
 595   0.0000       3.221739        87.6680 
 596   0.0000       3.225421        87.7682 
 597   0.0000       3.234407        88.0127 
 598   0.0000       3.244862        88.2972 
 599   0.0000       3.251932        88.4896 
 600   0.0000       3.257569        88.6430 
 601   0.0000       3.267850        88.9227 
 602   0.0000       3.275610        89.1339 
 603   0.0000       3.282033        89.3087 
 604   0.0000       3.284554        89.3773 
 605   0.0000       3.289469        89.5110 
 606   0.0000       3.291232        89.5590 
 607   0.0000       3.299329        89.7793 
 608   0.0000       3.304203        89.9119 
 609   0.0000       3.309354        90.0521 
 610   0.0000       3.319986        90.3414 
 611   0.0000       3.320703        90.3609 
 612   0.0000       3.337594        90.8206 
 613   0.0000       3.354300        91.2752 
 614   0.0000       3.357343        91.3580 
 615   0.0000       3.363196        91.5172 
 616   0.0000       3.376830        91.8882 
 617   0.0000       3.391675        92.2922 
 618   0.0000       3.397093        92.4396 
 619   0.0000       3.401870        92.5696 
 620   0.0000       3.408341        92.7457 
 621   0.0000       3.421429        93.1018 
 622   0.0000       3.423781        93.1658 
 623   0.0000       3.431911        93.3870 
 624   0.0000       3.452559        93.9489 
 625   0.0000       3.454629        94.0052 
 626   0.0000       3.484149        94.8085 
 627   0.0000       3.492409        95.0333 
 628   0.0000       3.496235        95.1374 
 629   0.0000       3.502890        95.3185 
 630   0.0000       3.507277        95.4379 
 631   0.0000       3.510856        95.5352 
 632   0.0000       3.518862        95.7531 
 633   0.0000       3.524726        95.9127 
 634   0.0000       3.530783        96.0775 
 635   0.0000       3.553151        96.6862 
 636   0.0000       3.562837        96.9497 
 637   0.0000       3.578494        97.3758 
 638   0.0000       3.594121        97.8010 
 639   0.0000       3.606745        98.1445 
 640   0.0000       3.613667        98.3329 
 641   0.0000       3.628947        98.7487 
 642   0.0000       3.641407        99.0877 
 643   0.0000       3.655734        99.4776 
 644   0.0000       3.664420        99.7139 
 645   0.0000       3.670079        99.8679 
 646   0.0000       3.681778       100.1863 
 647   0.0000       3.684320       100.2555 
 648   0.0000       3.689443       100.3948 
 649   0.0000       3.693682       100.5102 
 650   0.0000       3.698197       100.6331 
 651   0.0000       3.702863       100.7600 
 652   0.0000       3.707277       100.8801 
 653   0.0000       3.712999       101.0359 
 654   0.0000       3.717026       101.1454 
 655   0.0000       3.724463       101.3478 
 656   0.0000       3.729925       101.4964 
 657   0.0000       3.733898       101.6045 
 658   0.0000       3.743085       101.8545 
 659   0.0000       3.746976       101.9604 
 660   0.0000       3.754006       102.1517 
 661   0.0000       3.782179       102.9183 
 662   0.0000       3.786711       103.0416 
 663   0.0000       3.790157       103.1354 
 664   0.0000       3.798095       103.3514 
 665   0.0000       3.831855       104.2701 
 666   0.0000       3.842633       104.5634 
 667   0.0000       3.861245       105.0698 
 668   0.0000       3.870027       105.3088 
 669   0.0000       3.877673       105.5168 
 670   0.0000       3.888165       105.8023 
 671   0.0000       3.937226       107.1374 
 672   0.0000       3.952058       107.5410 
 673   0.0000       3.955399       107.6319 
 674   0.0000       3.959292       107.7378 
 675   0.0000       3.960919       107.7821 
 676   0.0000       3.967674       107.9659 
 677   0.0000       3.979962       108.3003 
 678   0.0000       3.988491       108.5324 
 679   0.0000       3.999877       108.8422 
 680   0.0000       4.013393       109.2100 
 681   0.0000       4.021649       109.4346 
 682   0.0000       4.025312       109.5343 
 683   0.0000       4.032640       109.7337 
 684   0.0000       4.034274       109.7782 
 685   0.0000       4.046369       110.1073 
 686   0.0000       4.059123       110.4543 
 687   0.0000       4.075094       110.8889 
 688   0.0000       4.085379       111.1688 
 689   0.0000       4.108158       111.7887 
 690   0.0000       4.110283       111.8465 
 691   0.0000       4.111328       111.8749 
 692   0.0000       4.118362       112.0663 
 693   0.0000       4.119421       112.0951 
 694   0.0000       4.134306       112.5002 
 695   0.0000       4.141228       112.6885 
 696   0.0000       4.162499       113.2674 
 697   0.0000       4.163223       113.2871 
 698   0.0000       4.172839       113.5487 
 699   0.0000       4.206462       114.4637 
 700   0.0000       4.228813       115.0719 
 701   0.0000       4.234769       115.2339 
 702   0.0000       4.247404       115.5778 
 703   0.0000       4.261758       115.9683 
 704   0.0000       4.271041       116.2209 
 705   0.0000       4.289604       116.7261 
 706   0.0000       4.306270       117.1796 
 707   0.0000       4.315648       117.4347 
 708   0.0000       4.316856       117.4676 
 709   0.0000       4.334420       117.9456 
 710   0.0000       4.338854       118.0662 
 711   0.0000       4.343126       118.1825 
 712   0.0000       4.373199       119.0008 
 713   0.0000       4.398440       119.6876 
 714   0.0000       4.418914       120.2448 
 715   0.0000       4.425691       120.4292 
 716   0.0000       4.431352       120.5832 
 717   0.0000       4.445977       120.9812 
 718   0.0000       4.453091       121.1748 
 719   0.0000       4.458541       121.3231 
 720   0.0000       4.462124       121.4206 
 721   0.0000       4.471316       121.6707 
 722   0.0000       4.481198       121.9396 
 723   0.0000       4.513518       122.8191 
 724   0.0000       4.539986       123.5393 
 725   0.0000       4.561720       124.1307 
 726   0.0000       4.565400       124.2308 
 727   0.0000       4.575829       124.5146 
 728   0.0000       4.581572       124.6709 
 729   0.0000       4.605105       125.3113 
 730   0.0000       4.609331       125.4263 
 731   0.0000       4.617472       125.6478 
 732   0.0000       4.631318       126.0246 
 733   0.0000       4.646148       126.4281 
 734   0.0000       4.748938       129.2252 
 735   0.0000       4.766235       129.6958 
 736   0.0000       4.774236       129.9136 
 737   0.0000       4.777177       129.9936 
 738   0.0000       4.793264       130.4313 
 739   0.0000       4.810401       130.8977 
 740   0.0000       4.821408       131.1972 
 741   0.0000       4.831693       131.4771 
 742   0.0000       4.838735       131.6687 
 743   0.0000       4.847736       131.9136 
 744   0.0000       4.851483       132.0156 
 745   0.0000       4.859183       132.2251 
 746   0.0000       4.902599       133.4065 
 747   0.0000       5.071123       137.9923 
 748   0.0000       5.090429       138.5176 
 749   0.0000       5.094920       138.6398 
 750   0.0000       5.117461       139.2532 
 751   0.0000       5.126679       139.5040 
 752   0.0000       5.134295       139.7113 
 753   0.0000       5.136272       139.7651 
 754   0.0000       5.138524       139.8263 
 755   0.0000       5.141397       139.9045 
 756   0.0000       5.143223       139.9542 
 757   0.0000       5.171157       140.7143 
 758   0.0000       5.182762       141.0301 
 759   0.0000       5.185936       141.1165 
 760   0.0000       5.195159       141.3675 
 761   0.0000       5.209763       141.7649 
 762   0.0000       5.225746       142.1998 
 763   0.0000       5.270224       143.4101 
 764   0.0000       5.292926       144.0278 
 765   0.0000       5.321077       144.7939 
 766   0.0000       5.323202       144.8517 
 767   0.0000       5.341682       145.3546 
 768   0.0000       5.354165       145.6942 
 769   0.0000       5.366641       146.0337 
 770   0.0000       5.378305       146.3511 
 771   0.0000       5.400888       146.9656 
 772   0.0000       5.431418       147.7964 
 773   0.0000       5.445362       148.1758 
 774   0.0000       5.469556       148.8342 
 775   0.0000       5.479391       149.1018 
 776   0.0000       5.487629       149.3260 
 777   0.0000       5.511836       149.9847 
 778   0.0000       5.527182       150.4023 
 779   0.0000       5.544742       150.8801 
 780   0.0000       5.553227       151.1110 
 781   0.0000       5.555316       151.1678 
 782   0.0000       5.558824       151.2633 
 783   0.0000       5.565950       151.4572 
 784   0.0000       5.569792       151.5617 
 785   0.0000       5.598700       152.3484 
 786   0.0000       5.605801       152.5416 
 787   0.0000       5.634270       153.3163 
 788   0.0000       5.653278       153.8335 
 789   0.0000       5.697176       155.0280 
 790   0.0000       5.734356       156.0398 
 791   0.0000       5.760586       156.7535 
 792   0.0000       5.778417       157.2387 
 793   0.0000       5.789209       157.5324 
 794   0.0000       5.807605       158.0330 
 795   0.0000       5.822508       158.4385 
 796   0.0000       5.853272       159.2756 
 797   0.0000       5.908627       160.7819 
 798   0.0000       5.911211       160.8522 
 799   0.0000       5.955965       162.0701 
 800   0.0000       6.019861       163.8087 
 801   0.0000       6.055539       164.7796 
 802   0.0000       6.289606       171.1489 
 803   0.0000       6.438703       175.2060 
 804   0.0000       6.609446       179.8522 
 805   0.0000       6.847846       186.3394 
 806   0.0000       6.905942       187.9202 
 807   0.0000       6.945484       188.9962 
 808   0.0000       6.980317       189.9441 
 809   0.0000       6.999294       190.4605 
 810   0.0000       7.088748       192.8946 
 811   0.0000       7.123965       193.8529 
 812   0.0000       7.131448       194.0566 
 813   0.0000       7.145970       194.4517 
 814   0.0000       7.158342       194.7884 
 815   0.0000       7.163489       194.9284 
 816   0.0000       7.180680       195.3962 
 817   0.0000       7.189535       195.6372 
 818   0.0000       7.196026       195.8138 
 819   0.0000       7.204761       196.0515 
 820   0.0000       7.215001       196.3302 
 821   0.0000       7.217709       196.4038 
 822   0.0000       7.230754       196.7588 
 823   0.0000       7.236483       196.9147 
 824   0.0000       7.248110       197.2311 
 825   0.0000       7.256431       197.4575 
 826   0.0000       7.287883       198.3134 
 827   0.0000       7.297922       198.5866 
 828   0.0000       7.329288       199.4401 
 829   0.0000       7.373365       200.6395 
 830   0.0000       7.380104       200.8228 
 831   0.0000       7.450076       202.7269 
 832   0.0000       7.459532       202.9842 
 833   0.0000       7.478643       203.5042 
 834   0.0000       7.501434       204.1244 
 835   0.0000       7.514758       204.4869 
 836   0.0000       7.573090       206.0743 
 837   0.0000       7.590158       206.5387 
 838   0.0000       7.615385       207.2252 
 839   0.0000       7.773835       211.5368 
 840   0.0000       9.423609       256.4294 
 841   0.0000       9.449530       257.1348 
 842   0.0000       9.474756       257.8212 
 843   0.0000       9.501259       258.5424 
 844   0.0000       9.661401       262.9001 
 845   0.0000       9.688197       263.6292 
 846   0.0000       9.698491       263.9094 
 847   0.0000       9.764687       265.7106 
 848   0.0000       9.790188       266.4046 
 849   0.0000       9.834841       267.6196 
 850   0.0000       9.878580       268.8098 
 851   0.0000       9.923424       270.0301 
 852   0.0000       9.938673       270.4450 
 853   0.0000      10.013407       272.4787 
 854   0.0000      10.024494       272.7803 
 855   0.0000      20.626510       561.2759 
 856   0.0000      20.689188       562.9814 
 857   0.0000      20.791447       565.7640 
 858   0.0000      21.108936       574.4034 
 859   0.0000      21.151699       575.5670 
 860   0.0000      23.231399       632.1585 
 861   0.0000      23.248265       632.6174 
 862   0.0000      23.716729       645.3650 
 863   0.0000      23.735441       645.8742 
 864   0.0000      23.953351       651.8038 
 865   0.0000      24.107167       655.9894 
 866   0.0000      24.180546       657.9861 
 867   0.0000      25.387461       690.8279 
 868   0.0000      44.804588      1219.1948 
 869   0.0000      45.017855      1224.9981 
 870   0.0000      86.026234      2340.8928 

                    ********************************
                    * MULLIKEN POPULATION ANALYSIS *
                    ********************************

-----------------------
MULLIKEN ATOMIC CHARGES
-----------------------
   0 O :   -0.225466
   1 Mo:   -0.193760
   2 O :   -0.278914
   3 S :   -0.177408
   4 C :   -0.109530
   5 C :   -0.015489
   6 S :   -0.184052
   7 S :   -0.199857
   8 C :   -0.097325
   9 C :   -0.117444
  10 S :   -0.128205
  11 S :    0.236579
  12 C :   -0.589156
  13 H :    0.280516
  14 H :    0.107041
  15 H :    0.358297
  16 C :   -0.897014
  17 H :    0.312877
  18 H :    0.328172
  19 H :    0.306375
  20 C :   -0.891790
  21 H :    0.277898
  22 H :    0.244058
  23 H :    0.267943
  24 H :    0.094080
  25 H :    0.093505
  26 H :    0.089507
  27 H :    0.108563
Sum of atomic charges:   -1.0000000

--------------------------------
MULLIKEN REDUCED ORBITAL CHARGES
--------------------------------
  0 O s       :     3.594115  s :     3.594115
      pz      :     1.295795  p :     4.628014
      px      :     1.592678
      py      :     1.739540
      dz2     :    -0.015722  d :     0.001840
      dxz     :     0.017298
      dyz     :     0.004127
      dx2y2   :    -0.001330
      dxy     :    -0.002535
      f0      :     0.000624  f :     0.001498
      f+1     :     0.000347
      f-1     :     0.000332
      f+2     :     0.000064
      f-2     :     0.000065
      f+3     :     0.000026
      f-3     :     0.000039
  1 Mos       :     2.549884  s :     2.549884
      pz      :     2.402228  p :     7.064387
      px      :     2.315265
      py      :     2.346893
      dz2     :     1.416209  d :     4.416323
      dxz     :     0.765269
      dyz     :     0.849637
      dx2y2   :     0.724191
      dxy     :     0.661018
      f0      :     0.015771  f :     0.154047
      f+1     :     0.019891
      f-1     :     0.015861
      f+2     :     0.033949
      f-2     :     0.030310
      f+3     :     0.024070
      f-3     :     0.014195
      g0      :     0.000770  g :     0.009119
      g+1     :     0.001053
      g-1     :     0.000591
      g+2     :     0.000937
      g-2     :     0.001151
      g+3     :     0.001522
      g-3     :     0.001565
      g+4     :     0.000777
      g-4     :     0.000753
  2 O s       :     3.778154  s :     3.778154
      pz      :     1.565994  p :     4.502615
      px      :     1.186118
      py      :     1.750503
      dz2     :    -0.008924  d :    -0.002873
      dxz     :     0.010923
      dyz     :     0.003454
      dx2y2   :    -0.003481
      dxy     :    -0.004846
      f0      :     0.000080  f :     0.001019
      f+1     :     0.000166
      f-1     :     0.000043
      f+2     :     0.000166
      f-2     :     0.000149
      f+3     :     0.000183
      f-3     :     0.000232
  3 S s       :     5.819654  s :     5.819654
      pz      :     3.583744  p :    10.272536
      px      :     3.242890
      py      :     3.445901
      dz2     :     0.008724  d :     0.073272
      dxz     :     0.027009
      dyz     :     0.014414
      dx2y2   :     0.024349
      dxy     :    -0.001225
      f0      :     0.001182  f :     0.011947
      f+1     :     0.001942
      f-1     :     0.000969
      f+2     :     0.001697
      f-2     :     0.002725
      f+3     :     0.001695
      f-3     :     0.001736
  4 C s       :     3.247156  s :     3.247156
      pz      :     0.957513  p :     2.877512
      px      :     0.972351
      py      :     0.947648
      dz2     :    -0.025951  d :    -0.022120
      dxz     :     0.025273
      dyz     :    -0.031478
      dx2y2   :     0.016167
      dxy     :    -0.006131
      f0      :     0.001370  f :     0.006982
      f+1     :     0.001198
      f-1     :     0.001072
      f+2     :     0.001139
      f-2     :     0.001067
      f+3     :     0.000503
      f-3     :     0.000632
  5 C s       :     3.170724  s :     3.170724
      pz      :     0.976538  p :     2.854459
      px      :     0.877499
      py      :     1.000422
      dz2     :    -0.016886  d :    -0.016697
      dxz     :    -0.053980
      dyz     :     0.037652
      dx2y2   :     0.014872
      dxy     :     0.001646
      f0      :     0.001355  f :     0.007003
      f+1     :     0.001401
      f-1     :     0.000883
      f+2     :     0.000970
      f-2     :     0.001138
      f+3     :     0.000560
      f-3     :     0.000695
  6 S s       :     5.833197  s :     5.833197
      pz      :     3.612088  p :    10.257495
      px      :     3.148121
      py      :     3.497287
      dz2     :     0.012230  d :     0.081282
      dxz     :     0.025129
      dyz     :     0.013557
      dx2y2   :     0.020322
      dxy     :     0.010044
      f0      :     0.001306  f :     0.012078
      f+1     :     0.001822
      f-1     :     0.000881
      f+2     :     0.002343
      f-2     :     0.001824
      f+3     :     0.001932
      f-3     :     0.001969
  7 S s       :     5.819454  s :     5.819454
      pz      :     3.503912  p :    10.323883
      px      :     3.686313
      py      :     3.133658
      dz2     :     0.003169  d :     0.044701
      dxz     :     0.013187
      dyz     :     0.027639
      dx2y2   :    -0.010393
      dxy     :     0.011099
      f0      :     0.001107  f :     0.011819
      f+1     :     0.000426
      f-1     :     0.003289
      f+2     :     0.002596
      f-2     :     0.001931
      f+3     :     0.001127
      f-3     :     0.001343
  8 C s       :     3.202625  s :     3.202625
      pz      :     0.931132  p :     2.893731
      px      :     1.016038
      py      :     0.946561
      dz2     :    -0.099071  d :    -0.006001
      dxz     :     0.045232
      dyz     :     0.040004
      dx2y2   :    -0.001195
      dxy     :     0.009029
      f0      :     0.001217  f :     0.006969
      f+1     :     0.001478
      f-1     :     0.001716
      f+2     :     0.000918
      f-2     :     0.000679
      f+3     :     0.000410
      f-3     :     0.000551
  9 C s       :     3.228100  s :     3.228100
      pz      :     0.995432  p :     2.884937
      px      :     0.993737
      py      :     0.895768
      dz2     :    -0.006513  d :    -0.002614
      dxz     :     0.028366
      dyz     :    -0.052183
      dx2y2   :     0.006533
      dxy     :     0.021182
      f0      :     0.001119  f :     0.007021
      f+1     :     0.001459
      f-1     :     0.001751
      f+2     :     0.000868
      f-2     :     0.000335
      f+3     :     0.000816
      f-3     :     0.000674
 10 S s       :     5.783732  s :     5.783732
      pz      :     3.575971  p :    10.245592
      px      :     3.676306
      py      :     2.993314
      dz2     :     0.018456  d :     0.087311
      dxz     :     0.004237
      dyz     :     0.025400
      dx2y2   :     0.018100
      dxy     :     0.021117
[...]
   5 C :   -0.616033
   6 S :    0.543654
   7 S :    0.558288
   8 C :   -0.613423
   9 C :   -0.631345
  10 S :    0.524435
  11 S :    1.048663
  12 C :   -0.060655
  13 H :   -0.043508
  14 H :   -0.042368
  15 H :   -0.040022
  16 C :   -0.089769
  17 H :   -0.040539
  18 H :   -0.045996
  19 H :   -0.029719
  20 C :   -0.083527
  21 H :   -0.042358
  22 H :   -0.005715
  23 H :   -0.038646
  24 H :   -0.071543
  25 H :   -0.072410
  26 H :   -0.072586
  27 H :   -0.073239

-------------------------------
LOEWDIN REDUCED ORBITAL CHARGES
-------------------------------
  0 O s       :     3.292643  s :     3.292643
      pz      :     1.367845  p :     4.578815
      px      :     1.594685
      py      :     1.616285
      dz2     :     0.191003  d :     0.673249
      dxz     :     0.195824
      dyz     :     0.144058
      dx2y2   :     0.074877
      dxy     :     0.067487
      f0      :     0.001416  f :     0.004323
      f+1     :     0.001283
      f-1     :     0.001052
      f+2     :     0.000234
      f-2     :     0.000196
      f+3     :     0.000051
      f-3     :     0.000091
  1 Mos       :     1.906493  s :     1.906493
      pz      :     2.240314  p :     6.651084
      px      :     2.195339
      py      :     2.215431
      dz2     :     1.310551  d :     4.665797
      dxz     :     0.882398
      dyz     :     0.989015
      dx2y2   :     0.765028
      dxy     :     0.718805
      f0      :     0.047184  f :     0.411938
      f+1     :     0.053740
      f-1     :     0.045778
      f+2     :     0.091166
      f-2     :     0.084414
      f+3     :     0.054359
      f-3     :     0.035297
      g0      :     0.003080  g :     0.037106
      g+1     :     0.004125
      g-1     :     0.002440
      g+2     :     0.004135
      g-2     :     0.004960
      g+3     :     0.005174
      g-3     :     0.007848
      g+4     :     0.002566
      g-4     :     0.002779
  2 O s       :     3.511246  s :     3.511246
      pz      :     1.506923  p :     4.580951
      px      :     1.390565
      py      :     1.683463
      dz2     :     0.091693  d :     0.591567
      dxz     :     0.169946
      dyz     :     0.068050
      dx2y2   :     0.128882
      dxy     :     0.132997
      f0      :     0.000364  f :     0.003078
      f+1     :     0.000651
      f-1     :     0.000144
      f+2     :     0.000590
      f-2     :     0.000541
      f+3     :     0.000299
      f-3     :     0.000490
  3 S s       :     5.130918  s :     5.130918
      pz      :     3.351466  p :     9.750638
      px      :     3.130757
      py      :     3.268414
      dz2     :     0.098698  d :     0.528730
      dxz     :     0.121471
      dyz     :     0.067176
      dx2y2   :     0.112497
      dxy     :     0.128888
      f0      :     0.003000  f :     0.031521
      f+1     :     0.005957
      f-1     :     0.003164
      f+2     :     0.004686
      f-2     :     0.006542
      f+3     :     0.003822
      f-3     :     0.004350
  4 C s       :     2.754701  s :     2.754701
      pz      :     1.007558  p :     2.830515
      px      :     0.931305
      py      :     0.891652
      dz2     :     0.216033  d :     0.984323
      dxz     :     0.265671
      dyz     :     0.203882
      dx2y2   :     0.176169
      dxy     :     0.122568
      f0      :     0.007402  f :     0.042006
      f+1     :     0.008283
      f-1     :     0.007754
      f+2     :     0.005962
      f-2     :     0.005226
      f+3     :     0.003568
      f-3     :     0.003812
  5 C s       :     2.754723  s :     2.754723
      pz      :     1.006906  p :     2.830757
      px      :     0.944993
      py      :     0.878857
      dz2     :     0.206142  d :     0.988310
      dxz     :     0.292254
      dyz     :     0.172752
      dx2y2   :     0.145738
      dxy     :     0.171425
      f0      :     0.007656  f :     0.042242
      f+1     :     0.009608
      f-1     :     0.006282
      f+2     :     0.005772
      f-2     :     0.004870
      f+3     :     0.003946
      f-3     :     0.004107
  6 S s       :     5.135959  s :     5.135959
      pz      :     3.388876  p :     9.752782
      px      :     3.064142
      py      :     3.299763
      dz2     :     0.101391  d :     0.535882
      dxz     :     0.102815
      dyz     :     0.068194
      dx2y2   :     0.140778
      dxy     :     0.122704
      f0      :     0.003218  f :     0.031724
      f+1     :     0.006202
      f-1     :     0.002255
      f+2     :     0.005990
      f-2     :     0.004537
      f+3     :     0.004461
      f-3     :     0.005062
  7 S s       :     5.117532  s :     5.117532
      pz      :     3.300603  p :     9.746724
      px      :     3.389312
      py      :     3.056809
      dz2     :     0.111354  d :     0.546333
      dxz     :     0.052986
      dyz     :     0.161954
      dx2y2   :     0.103729
      dxy     :     0.116310
      f0      :     0.003628  f :     0.031123
      f+1     :     0.000747
      f-1     :     0.009832
      f+2     :     0.006220
      f-2     :     0.005684
      f+3     :     0.002198
      f-3     :     0.002813
  8 C s       :     2.753554  s :     2.753554
      pz      :     1.038163  p :     2.834013
      px      :     0.844478
      py      :     0.951372
      dz2     :     0.258188  d :     0.983725
      dxz     :     0.199022
      dyz     :     0.323254
      dx2y2   :     0.108004
      dxy     :     0.095257
      f0      :     0.009302  f :     0.042130
      f+1     :     0.005578
      f-1     :     0.012387
      f+2     :     0.005117
      f-2     :     0.004978
      f+3     :     0.001653
      f-3     :     0.003114
  9 C s       :     2.756205  s :     2.756205
      pz      :     1.037072  p :     2.829216
      px      :     0.828888
      py      :     0.963255
      dz2     :     0.200367  d :     1.003655
      dxz     :     0.132409
      dyz     :     0.365959
      dx2y2   :     0.130860
      dxy     :     0.174059
      f0      :     0.009079  f :     0.042269
      f+1     :     0.006310
      f-1     :     0.011446
      f+2     :     0.005581
      f-2     :     0.002241
      f+3     :     0.003941
      f-3     :     0.003671
 10 S s       :     5.146712  s :     5.146712
      pz      :     3.380503  p :     9.779424
      px      :     3.395613
      py      :     3.003308
      dz2     :     0.117282  d :     0.518738
      dxz     :     0.030491
      dyz     :     0.122301
      dx2y2   :     0.129225
      dxy     :     0.119439
      f0      :     0.004553  f :     0.030691
      f+1     :     0.000588
      f-1     :     0.006732
      f+2     :     0.006011
      f-2     :     0.002919
      f+3     :     0.004830
      f-3     :     0.005059
 11 S s       :     4.934083  s :     4.934083
      pz      :     2.966908  p :     8.993287
      px      :     2.919080
      py      :     3.107300
      dz2     :     0.156115  d :     0.941397
      dxz     :     0.287110
      dyz     :     0.171585
      dx2y2   :     0.167732
      dxy     :     0.158855
      f0      :     0.011069  f :     0.082569
      f+1     :     0.016077
      f-1     :     0.008240
      f+2     :     0.014213
      f-2     :     0.012554
      f+3     :     0.009784
      f-3     :     0.010632
 12 C s       :     2.686654  s :     2.686654
      pz      :     0.946744  p :     2.779271
      px      :     0.936667
      py      :     0.895860
      dz2     :     0.135418  d :     0.568040
      dxz     :     0.065376
      dyz     :     0.088131
      dx2y2   :     0.152098
      dxy     :     0.127017
      f0      :     0.005227  f :     0.026689
      f+1     :     0.000999
      f-1     :     0.003266
      f+2     :     0.004132
      f-2     :     0.004307
      f+3     :     0.005355
      f-3     :     0.003405
 13 H s       :     0.698133  s :     0.698133
      pz      :     0.144886  p :     0.314834
      px      :     0.087793
      py      :     0.082156
      dz2     :     0.011431  d :     0.030541
      dxz     :     0.009657
      dyz     :     0.009317
      dx2y2   :     0.000094
      dxy     :     0.000042
 14 H s       :     0.673576  s :     0.673576
      pz      :     0.088331  p :     0.338626
      px      :     0.134440
      py      :     0.115854
      dz2     :     0.004451  d :     0.030166
      dxz     :     0.004331
      dyz     :     0.005345
      dx2y2   :     0.008308
      dxy     :     0.007732
 15 H s       :     0.703838  s :     0.703838
      pz      :     0.091606  p :     0.305934
      px      :     0.130174
      py      :     0.084154
      dz2     :     0.004817  d :     0.030250
      dxz     :     0.008326
      dyz     :     0.001242
      dx2y2   :     0.007411
      dxy     :     0.008453
 16 C s       :     2.699206  s :     2.699206
      pz      :     0.907382  p :     2.802591
      px      :     0.929891
      py      :     0.965319
      dz2     :     0.132873  d :     0.561913
      dxz     :     0.108555
      dyz     :     0.146728
      dx2y2   :     0.121995
      dxy     :     0.051762
      f0      :     0.004414  f :     0.026059
      f+1     :     0.006414
      f-1     :     0.002440
      f+2     :     0.004035
      f-2     :     0.003353
      f+3     :     0.003844
      f-3     :     0.001559
 17 H s       :     0.706643  s :     0.706643
      pz      :     0.096814  p :     0.303566
      px      :     0.090500
      py      :     0.116252
      dz2     :     0.005278  d :     0.030330
      dxz     :     0.003306
      dyz     :     0.007868
      dx2y2   :     0.007648
      dxy     :     0.006230
 18 H s       :     0.715064  s :     0.715064
      pz      :     0.079969  p :     0.301031
      px      :     0.137719
      py      :     0.083342
      dz2     :     0.002925  d :     0.029901
      dxz     :     0.008793
      dyz     :     0.000572
      dx2y2   :     0.008249
      dxy     :     0.009361
 19 H s       :     0.693356  s :     0.693356
      pz      :     0.097522  p :     0.305839
      px      :     0.086310
      py      :     0.122007
      dz2     :     0.006203  d :     0.030524
      dxz     :     0.003013
      dyz     :     0.008853
      dx2y2   :     0.006559
      dxy     :     0.005896
 20 C s       :     2.646132  s :     2.646132
      pz      :     0.754652  p :     2.591020
      px      :     0.915938
      py      :     0.920429
      dz2     :     0.179183  d :     0.776404
      dxz     :     0.226794
      dyz     :     0.209457
      dx2y2   :     0.104849
      dxy     :     0.056121
      f0      :     0.020068  f :     0.069971
      f+1     :     0.017241
      f-1     :     0.018964
      f+2     :     0.003691
      f-2     :     0.005377
      f+3     :     0.000342
      f-3     :     0.004289
 21 H s       :     0.694078  s :     0.694078
      pz      :     0.074235  p :     0.320271
      px      :     0.083137
      py      :     0.162900
      dz2     :     0.003413  d :     0.028009
      dxz     :     0.000489
      dyz     :     0.008029
      dx2y2   :     0.007263
      dxy     :     0.008815
 22 H s       :     0.708275  s :     0.708275
      pz      :     0.064186  p :     0.269603
      px      :     0.112831
      py      :     0.092586
      dz2     :     0.004369  d :     0.027836
      dxz     :     0.006017
      dyz     :     0.003453
      dx2y2   :     0.007802
      dxy     :     0.006196
 23 H s       :     0.693892  s :     0.693892
      pz      :     0.072014  p :     0.316531
      px      :     0.158900
      py      :     0.085616
      dz2     :     0.003701  d :     0.028223
      dxz     :     0.007264
      dyz     :     0.001860
      dx2y2   :     0.007814
      dxy     :     0.007584
 24 H s       :     0.728601  s :     0.728601
      pz      :     0.091686  p :     0.313252
      px      :     0.114686
      py      :     0.106879
      dz2     :     0.005684  d :     0.029690
      dxz     :     0.005721
      dyz     :     0.005265
      dx2y2   :     0.006477
      dxy     :     0.006543
 25 H s       :     0.728990  s :     0.728990
      pz      :     0.087710  p :     0.313695
      px      :     0.130764
      py      :     0.095220
      dz2     :     0.005061  d :     0.029726
      dxz     :     0.007821
      dyz     :     0.002472
      dx2y2   :     0.006948
      dxy     :     0.007423
 26 H s       :     0.728476  s :     0.728476
      pz      :     0.099762  p :     0.314454
      px      :     0.090770
      py      :     0.123923
      dz2     :     0.007143  d :     0.029655
      dxz     :     0.004419
      dyz     :     0.008643
      dx2y2   :     0.004968
      dxy     :     0.004482
 27 H s       :     0.728989  s :     0.728989
      pz      :     0.083053  p :     0.314483
      px      :     0.092975
      py      :     0.138455
      dz2     :     0.004335  d :     0.029767
      dxz     :     0.001338
      dyz     :     0.008363
      dx2y2   :     0.007872
      dxy     :     0.007858


                      *****************************
                      * MAYER POPULATION ANALYSIS *
                      *****************************

  NA   - Mulliken gross atomic population
  ZA   - Total nuclear charge
  QA   - Mulliken gross atomic charge
  VA   - Mayer's total valence
  BVA  - Mayer's bonded valence
  FA   - Mayer's free valence

  ATOM       NA         ZA         QA         VA         BVA        FA
  0 O      8.2255     8.0000    -0.2255     1.4130     1.4130    -0.0000
  1 Mo    14.1938    14.0000    -0.1938     7.0052     7.0052    -0.0000
  2 O      8.2789     8.0000    -0.2789     1.4694     1.4694    -0.0000
  3 S     16.1774    16.0000    -0.1774     2.1471     2.1471    -0.0000
  4 C      6.1095     6.0000    -0.1095     3.4560     3.4560     0.0000
  5 C      6.0155     6.0000    -0.0155     3.3593     3.3593     0.0000
  6 S     16.1841    16.0000    -0.1841     2.2278     2.2278     0.0000
  7 S     16.1999    16.0000    -0.1999     2.1063     2.1063     0.0000
  8 C      6.0973     6.0000    -0.0973     3.3856     3.3856     0.0000
  9 C      6.1174     6.0000    -0.1174     3.4868     3.4868     0.0000
 10 S     16.1282    16.0000    -0.1282     2.2184     2.2184    -0.0000
 11 S     15.7634    16.0000     0.2366     2.7341     2.7341    -0.0000
 12 C      6.5892     6.0000    -0.5892     3.5926     3.5926    -0.0000
 13 H      0.7195     1.0000     0.2805     0.9942     0.9942    -0.0000
 14 H      0.8930     1.0000     0.1070     1.1719     1.1719    -0.0000
 15 H      0.6417     1.0000     0.3583     0.9281     0.9281    -0.0000
 16 C      6.8970     6.0000    -0.8970     3.5029     3.5029     0.0000
 17 H      0.6871     1.0000     0.3129     1.0048     1.0048     0.0000
 18 H      0.6718     1.0000     0.3282     0.9964     0.9964     0.0000
 19 H      0.6936     1.0000     0.3064     1.0343     1.0343     0.0000
 20 C      6.8918     6.0000    -0.8918     3.7730     3.7730    -0.0000
 21 H      0.7221     1.0000     0.2779     1.0100     1.0100    -0.0000
 22 H      0.7559     1.0000     0.2441     0.9804     0.9804    -0.0000
 23 H      0.7321     1.0000     0.2679     0.9691     0.9691    -0.0000
 24 H      0.9059     1.0000     0.0941     1.0037     1.0037     0.0000
 25 H      0.9065     1.0000     0.0935     1.0093     1.0093     0.0000
 26 H      0.9105     1.0000     0.0895     1.0198     1.0198     0.0000
 27 H      0.8914     1.0000     0.1086     1.0051     1.0051     0.0000

  Mayer bond orders larger than 0.100000
B(  0-O ,  1-Mo) :   0.5665 B(  0-O , 11-S ) :   0.1062 B(  0-O , 20-C ) :   0.8362 
B(  1-Mo,  2-O ) :   0.8766 B(  1-Mo,  3-S ) :   1.3276 B(  1-Mo,  6-S ) :   1.3729 
B(  1-Mo,  7-S ) :   1.1427 B(  1-Mo, 10-S ) :   1.2089 B(  1-Mo, 11-S ) :   0.2644 
B(  2-O ,  6-S ) :  -0.1332 B(  2-O , 11-S ) :   0.8007 B(  3-S ,  4-C ) :   0.9072 
B(  4-C ,  5-C ) :   1.4489 B(  4-C , 24-H ) :  -0.1464 B(  4-C , 25-H ) :   1.1668 
B(  5-C ,  6-S ) :   0.9253 B(  5-C , 24-H ) :   1.1513 B(  5-C , 25-H ) :  -0.1563 
B(  7-S ,  8-C ) :   0.9247 B(  8-C ,  9-C ) :   1.4365 B(  8-C , 26-H ) :  -0.1532 
B(  8-C , 27-H ) :   1.1609 B(  9-C , 10-S ) :   0.9683 B(  9-C , 26-H ) :   1.1536 
B(  9-C , 27-H ) :  -0.1495 B( 11-S , 12-C ) :   0.7457 B( 11-S , 16-C ) :   0.7251 
B( 12-C , 13-H ) :   0.9646 B( 12-C , 14-H ) :   0.9526 B( 12-C , 15-H ) :   0.9046 
B( 16-C , 17-H ) :   0.9241 B( 16-C , 18-H ) :   0.9479 B( 16-C , 19-H ) :   0.9211 
B( 20-C , 21-H ) :   0.9376 B( 20-C , 22-H ) :   0.9453 B( 20-C , 23-H ) :   0.9358 


-------
TIMINGS
-------

Total SCF time: 0 days 0 hours 14 min 28 sec 

Total time                  ....     868.079 sec
Sum of individual times     ....     866.507 sec  ( 99.8%)

Fock matrix formation       ....     857.260 sec  ( 98.8%)
  XC integration            ....      12.387 sec  (  1.4% of F)
    Basis function eval.    ....       1.161 sec  (  9.4% of XC)
    Density eval.           ....       4.047 sec  ( 32.7% of XC)
    XC-Functional eval.     ....       0.120 sec  (  1.0% of XC)
    XC-Potential eval.      ....       5.559 sec  ( 44.9% of XC)
Diagonalization             ....       3.520 sec  (  0.4%)
Density matrix formation    ....       0.137 sec  (  0.0%)
Population analysis         ....       0.166 sec  (  0.0%)
Initial guess               ....       2.636 sec  (  0.3%)
Orbital Transformation      ....       0.000 sec  (  0.0%)
Orbital Orthonormalization  ....       0.000 sec  (  0.0%)
DIIS solution               ....       1.987 sec  (  0.2%)
Grid generation             ....       0.800 sec  (  0.1%)

-------------------------   --------------------
FINAL SINGLE POINT ENERGY     -2484.213320695523
-------------------------   --------------------


                            ***************************************
                            *     ORCA property calculations      *
                            ***************************************

                                    ---------------------
                                    Active property flags
                                    ---------------------
   (+) Dipole Moment


------------------------------------------------------------------------------
                       ORCA ELECTRIC PROPERTIES CALCULATION
------------------------------------------------------------------------------

Dipole Moment Calculation                       ... on
Quadrupole Moment Calculation                   ... off
Polarizability Calculation                      ... off
GBWName                                         ... TMB08_T1.gbw
Electron density file                           ... TMB08_T1.scfp
The origin for moment calculation is the CENTER OF MASS  = ( 0.092179, -0.001986 -0.023406)

-------------
DIPOLE MOMENT
-------------
                                X             Y             Z
Electronic contribution:     27.43354      -2.58835      -3.81168
Nuclear contribution   :    -30.46451       1.96400       4.17914
                        -----------------------------------------
Total Dipole Moment    :     -3.03096      -0.62435       0.36746
                        -----------------------------------------
Magnitude (a.u.)       :      3.11634
Magnitude (Debye)      :      7.92111



--------------------
Rotational spectrum 
--------------------
 
Rotational constants in cm-1:     0.012781     0.009890     0.008747 
Rotational constants in MHz :   383.176431   296.486696   262.216571 

 Dipole components along the rotational axes: 
x,y,z [a.u.] :     3.037840    -0.597011     0.355935 
x,y,z [Debye]:     7.721577    -1.517481     0.904715 

 

Timings for individual modules:

Sum of individual times         ...      872.402 sec (=  14.540 min)
GTO integral calculation        ...        3.907 sec (=   0.065 min)   0.4 %
SCF iterations                  ...      868.495 sec (=  14.475 min)  99.6 %
                             ****ORCA TERMINATED NORMALLY****
TOTAL RUN TIME: 0 days 0 hours 14 minutes 33 seconds 26 msec
