
                                 *****************
                                 * O   R   C   A *
                                 *****************

           --- An Ab Initio, DFT and Semiempirical electronic structure package ---

                  #######################################################
                  #                        -***-                        #
                  #          Department of theory and spectroscopy      #
                  #               Directorship: Frank Neese             #
                  #        Max Planck Institute fuer Kohlenforschung    #
                  #                Kaiser Wilhelm Platz 1               #
                  #                 D-45470 Muelheim/Ruhr               #
                  #                      Germany                        #
                  #                                                     #
                  #                  All rights reserved                #
                  #                        -***-                        #
                  #######################################################


                         Program Version 4.2.0 -  RELEASE  -


 With contributions from (in alphabetic order):
   Daniel Aravena         : Magnetic Suceptibility
   Michael Atanasov       : Ab Initio Ligand Field Theory (pilot matlab implementation)
   Alexander A. Auer      : GIAO ZORA, VPT2
   Ute Becker             : Parallelization
   Giovanni Bistoni       : ED, misc. LED, open-shell LED, HFLED
   Martin Brehm           : Molecular dynamics
   Dmytro Bykov           : SCF Hessian
   Vijay G. Chilkuri      : MRCI spin determinant printing, contributions to CSF-ICE
   Dipayan Datta          : RHF DLPNO-CCSD density
   Achintya Kumar Dutta   : EOM-CC, STEOM-CC
   Dmitry Ganyushin       : Spin-Orbit,Spin-Spin,Magnetic field MRCI
   Miquel Garcia          : C-PCM Hessian, Gaussian charge scheme
   Yang Guo               : DLPNO-NEVPT2, CIM, IAO-localization
   Andreas Hansen         : Spin unrestricted coupled pair/coupled cluster methods
   Benjamin Helmich-Paris : CASSCF linear response (MC-RPA)
   Lee Huntington         : MR-EOM, pCC
   Robert Izsak           : Overlap fitted RIJCOSX, COSX-SCS-MP3, EOM
   Christian Kollmar      : KDIIS, OOCD, Brueckner-CCSD(T), CCSD density
   Simone Kossmann        : Meta GGA functionals, TD-DFT gradient, OOMP2, MP2 Hessian
   Martin Krupicka        : AUTO-CI
   Lucas Lang             : DCDCAS
   Dagmar Lenk            : GEPOL surface, SMD
   Dimitrios Liakos       : Extrapolation schemes; Compound Job, initial MDCI parallelization
   Dimitrios Manganas     : Further ROCIS development; embedding schemes
   Dimitrios Pantazis     : SARC Basis sets
   Taras Petrenko         : DFT Hessian,TD-DFT gradient, ASA, ECA, R-Raman, ABS, FL, XAS/XES, NRVS
   Peter Pinski           : DLPNO-MP2, DLPNO-MP2 Gradient
   Christoph Reimann      : Effective Core Potentials
   Marius Retegan         : Local ZFS, SOC
   Christoph Riplinger    : Optimizer, TS searches, QM/MM, DLPNO-CCSD(T), (RO)-DLPNO pert. Triples
   Tobias Risthaus        : Range-separated hybrids, TD-DFT gradient, RPA, STAB
   Michael Roemelt        : Original ROCIS implementation
   Masaaki Saitow         : Open-shell DLPNO-CCSD energy and density
   Barbara Sandhoefer     : DKH picture change effects
   Avijit Sen             : IP-ROCIS
   Kantharuban Sivalingam : CASSCF convergence, NEVPT2, FIC-MRCI
   Bernardo de Souza      : ESD, SOC TD-DFT
   Georgi Stoychev        : AutoAux, RI-MP2 NMR
   Willem Van den Heuvel  : Paramagnetic NMR
   Boris Wezisla          : Elementary symmetry handling
   Frank Wennmohs         : Technical directorship


 We gratefully acknowledge several colleagues who have allowed us to
 interface, adapt or use parts of their codes:
   Stefan Grimme, W. Hujo, H. Kruse,             : VdW corrections, initial TS optimization,
                  C. Bannwarth                     DFT functionals, gCP, sTDA/sTD-DF
   Ed Valeev, F. Pavosevic, A. Kumar             : LibInt (2-el integral package), F12 methods
   Garnet Chan, S. Sharma, J. Yang, R. Olivares  : DMRG
   Ulf Ekstrom                                   : XCFun DFT Library
   Mihaly Kallay                                 : mrcc  (arbitrary order and MRCC methods)
   Andreas Klamt, Michael Diedenhofen            : otool_cosmo (COSMO solvation model)
   Jiri Pittner, Ondrej Demel                    : Mk-CCSD
   Frank Weinhold                                : gennbo (NPA and NBO analysis)
   Christopher J. Cramer and Donald G. Truhlar   : smd solvation model
   Lars Goerigk                                  : TD-DFT with DH, B97 family of functionals
   V. Asgeirsson, H. Jonsson                     : NEB implementation
   FAccTs GmbH                                   : IRC, NEB, NEB-TS, Multilevel, MM, QM/MM, CI optimization
   S Lehtola, MJT Oliveira, MAL Marques          : LibXC Library


 Your calculation uses the libint2 library for the computation of 2-el integrals
 For citations please refer to: http://libint.valeyev.net

 Your ORCA version has been built with support for libXC version: 4.2.3
 For citations please refer to: https://tddft.org/programs/libxc/

 This ORCA versions uses:
   CBLAS   interface :  Fast vector & matrix operations
   LAPACKE interface :  Fast linear algebra routines
   SCALAPACK package :  Parallel linear algebra routines


Your calculation utilizes the DFT-NL dispersion correction.
Cite in your paper:
Vydrov, O. A.; Van Voorhis, T. J. Chem. Phys. 2010, 133, 244103
Hujo, W.; Grimme, S. J. Chem. Theory Comput. 2011, 7, 3866 
   

----- Orbital basis set information -----
Your calculation utilizes the basis: def2-TZVPPD
   F. Weigend and R. Ahlrichs, Phys. Chem. Chem. Phys. 7, 3297 (2005).
   D. Rappoport and F. Furche, J. Chem. Phys. 133 134105 (2010).

----- AuxJK basis set information -----
Your calculation utilizes the auxiliary basis: def2/JK
   H-Ba, Hf-Rn: F. Weigend, J. Comput. Chem. 29, 167 (2008).

cite the ECPs for Zr [Def2-ECP] as follows:
Ce-Yb(ecp-28): M. Dolg, H. Stoll, H.Preuss, J. Chem. Phys., 1989, 90, 1730-1734.
Y-Cd(ecp-28), Hf-Hg(ecp-46): D. Andrae,U. Haeussermann, M. Dolg, H. Stoll, H. Preuss, Theor. Chim. Acta, 1990, 77, 123-141.
In-Sb(ecp-28), Tl-Bi(ecp-46): B. Metz, H. Stoll, M. Dolg, J. Chem. Phys., 2000, 113, 2563-2569.
Te-Xe(ecp-28), Po-Rn(ecp-46): K. A. Peterson, D. Figgen, E. Goll, H. Stoll, M. Dolg, J. Chem. Phys., 2003, 119, 11113-11123.
Rb(ecp-28), Cs(ecp-46): T. Leininger, A. Nicklass, W. Kuechle, H. Stoll, M. Dolg, A. Bergner, Chem. Phys. Lett., 1996, 255, 274-280.
Sr(ecp-28), Ba(ecp-46): M. Kaupp, P. V. Schleyer, H. Stoll and H. Preuss, J. Chem. Phys., 1991, 94, 1360-1366.
La(ecp-46): M. Dolg, H. Stoll, A. Savin, H. Preuss, Theor. Chim. Acta, 1989, 75, 173-194.
Lu(ecp-28): X. Cao, M. Dolg, J. Chem. Phys., 2001, 115, 7348-7355.

ECP parameters for Zr [Def2-ECP] have been obtained from:
TURBOMOLE (7.0.2)

================================================================================
                                        WARNINGS
                       Please study these warnings very carefully!
================================================================================


INFO   : the flag for use of LIBINT has been found!

================================================================================
                                       INPUT FILE
================================================================================
NAME = TMB01_T1.in
|  1> #
|  2> # TMB01_T1 wB97M-V/Def2-TZVPPD
|  3> #
|  4> ! wb97m-v def2-tzvppd def2/jk grid4 nofinalgrid
|  5> 
|  6> *xyz 0 1
|  7> Zr       0.019829   -0.026802    0.120636 
|  8> C        2.239874   -0.374444    1.245397 
|  9> C        1.976783   -1.521588    0.474285 
| 10> C        2.416443    0.711808    0.354001 
| 11> H        1.819060   -2.516470    0.858019 
| 12> C        2.001810   -1.148643   -0.895658 
| 13> H        2.608112    1.737773    0.630719 
| 14> C        2.298913    0.223349   -0.961356 
| 15> H        1.861573   -1.806504   -1.739184 
| 16> H        2.356666    0.814844   -1.859655 
| 17> C       -1.057190   -2.235373    0.523484 
| 18> C       -1.856346   -1.294393    1.201077 
| 19> C       -1.167009   -1.987955   -0.868757 
| 20> H       -2.005770   -1.236737    2.266001 
| 21> C       -2.451652   -0.457501    0.227470 
| 22> H       -0.689853   -2.550694   -1.656100 
| 23> C       -2.043033   -0.903228   -1.046149 
| 24> H       -3.108339    0.375352    0.426641 
| 25> H       -2.305042   -0.449162   -1.987488 
| 26> Cl      -0.345437    1.661478   -1.736503 
| 27> C       -1.133945    2.698822    1.012771 
| 28> C       -0.495222    2.377308    1.980322 
| 29> H       -1.676629    3.004729    0.150271 
| 30> H       -0.029188    0.104247    1.943645 
| 31> H        0.041631    2.180985    2.876056 
| 32> H        2.316195   -0.336400    2.319120 
| 33> H       -0.485725   -3.023975    0.985751 
| 34> *
| 35> 
| 36> %maxcore 5000
| 37> 
| 38> %pal
| 39> nprocs = 24
| 40> end
| 41> 
| 42> 
| 43>                          ****END OF INPUT****
================================================================================

                       ****************************
                       * Single Point Calculation *
                       ****************************

---------------------------------
CARTESIAN COORDINATES (ANGSTROEM)
---------------------------------
  Zr     0.019829   -0.026802    0.120636
  C      2.239874   -0.374444    1.245397
  C      1.976783   -1.521588    0.474285
  C      2.416443    0.711808    0.354001
  H      1.819060   -2.516470    0.858019
  C      2.001810   -1.148643   -0.895658
  H      2.608112    1.737773    0.630719
  C      2.298913    0.223349   -0.961356
  H      1.861573   -1.806504   -1.739184
  H      2.356666    0.814844   -1.859655
  C     -1.057190   -2.235373    0.523484
  C     -1.856346   -1.294393    1.201077
  C     -1.167009   -1.987955   -0.868757
  H     -2.005770   -1.236737    2.266001
  C     -2.451652   -0.457501    0.227470
  H     -0.689853   -2.550694   -1.656100
  C     -2.043033   -0.903228   -1.046149
  H     -3.108339    0.375352    0.426641
  H     -2.305042   -0.449162   -1.987488
  Cl    -0.345437    1.661478   -1.736503
  C     -1.133945    2.698822    1.012771
  C     -0.495222    2.377308    1.980322
  H     -1.676629    3.004729    0.150271
  H     -0.029188    0.104247    1.943645
  H      0.041631    2.180985    2.876056
  H      2.316195   -0.336400    2.319120
  H     -0.485725   -3.023975    0.985751

----------------------------
CARTESIAN COORDINATES (A.U.)
----------------------------
  NO LB      ZA    FRAG     MASS         X           Y           Z
   0 Zr   12.0000*   0    91.220    0.037471   -0.050648    0.227969
   1 C     6.0000    0    12.011    4.232748   -0.707597    2.353459
   2 C     6.0000    0    12.011    3.735578   -2.875385    0.896269
   3 C     6.0000    0    12.011    4.566415    1.345122    0.668965
   4 H     1.0000    0     1.008    3.437525   -4.755439    1.621421
   5 C     6.0000    0    12.011    3.782873   -2.170621   -1.692548
   6 H     1.0000    0     1.008    4.928617    3.283915    1.191886
   7 C     6.0000    0    12.011    4.344316    0.422068   -1.816700
   8 H     1.0000    0     1.008    3.517863   -3.413798   -3.286581
   9 H     1.0000    0     1.008    4.453453    1.539832   -3.514239
  10 C     6.0000    0    12.011   -1.997800   -4.224243    0.989241
  11 C     6.0000    0    12.011   -3.507986   -2.446048    2.269707
  12 C     6.0000    0    12.011   -2.205327   -3.756691   -1.641713
  13 H     1.0000    0     1.008   -3.790356   -2.337094    4.282121
  14 C     6.0000    0    12.011   -4.632951   -0.864552    0.429856
  15 H     1.0000    0     1.008   -1.303633   -4.820113   -3.129575
  16 C     6.0000    0    12.011   -3.860773   -1.706854   -1.976935
  17 H     1.0000    0     1.008   -5.873909    0.709312    0.806235
  18 H     1.0000    0     1.008   -4.355898   -0.848793   -3.755808
  19 Cl   17.0000    0    35.453   -0.652781    3.139738   -3.281515
  20 C     6.0000    0    12.011   -2.142846    5.100034    1.913860
  21 C     6.0000    0    12.011   -0.935834    4.492461    3.742266
  22 H     1.0000    0     1.008   -3.168370    5.678115    0.283971
  23 H     1.0000    0     1.008   -0.055157    0.196998    3.672957
  24 H     1.0000    0     1.008    0.078671    4.121464    5.434958
  25 H     1.0000    0     1.008    4.376974   -0.635704    4.382502
  26 H     1.0000    0     1.008   -0.917887   -5.714485    1.862799
* core charge reduced due to ECP

--------------------------------
INTERNAL COORDINATES (ANGSTROEM)
--------------------------------
 Zr     0   0   0     0.000000000000     0.00000000     0.00000000
 C      1   0   0     2.512875259401     0.00000000     0.00000000
 C      2   1   0     1.407042979998    72.68031406     0.00000000
 C      2   1   3     1.416229800591    73.87765652   114.91571753
 H      3   2   1     1.077923244674   125.78464896   244.62833864
 C      3   2   1     1.420020474149   108.13719368    66.62737094
 H      4   2   1     1.079774994297   126.12918862   113.05062749
 C      6   3   2     1.405328597829   107.77200450     0.81029657
 H      6   3   2     1.078880727498   126.28808870   178.34688657
 H      8   6   3     1.077099270000   125.90571372   182.21056556
 C      1   2   3     2.489988413528   100.77837645    45.29771273
 C     11   1   2     1.408270551558    74.37353707   116.95224339
 C     11   1   2     1.418312688220    73.73672681   231.71533529
 H     12  11   1     1.076900585889   126.17930871   244.75507830
 C     12  11   1     1.415163610241   107.62801305    66.06774805
 H     13  11   1     1.079009745139   126.23209166   114.31040517
 C     13  11   1     1.405531442113   107.86518666   292.48595059
 H     15  12  11     1.079143652541   125.83223214   181.08937309
 H     17  13  11     1.077471002560   125.94840995   177.61507022
 Cl     1   2   3     2.536271648400   123.16625043   249.69254847
 C     20   1   2     3.042422549134    66.58474268   263.34141593
 C     21  20   1     1.203118140719   119.86827267    35.81366664
 H     21  20   1     1.063950781994    59.84631683   213.87087256
 H      1   2   3     1.828370400321    65.62633322   123.26690636
 H     22  21  20     1.062588002329   174.57341787   151.45188446
 H      2   1   3     1.077104136890   120.25890068   237.88688808
 H     11   1   2     1.078033459554   119.27022567   354.43539919

---------------------------
INTERNAL COORDINATES (A.U.)
---------------------------
 Zr     0   0   0     0.000000000000     0.00000000     0.00000000
 C      1   0   0     4.748646048974     0.00000000     0.00000000
 C      2   1   0     2.658925890852    72.68031406     0.00000000
 C      2   1   3     2.676286465814    73.87765652   114.91571753
 H      3   2   1     2.036979725822   125.78464896   244.62833864
 C      3   2   1     2.683449800703   108.13719368    66.62737094
 H      4   2   1     2.040479025479   126.12918862   113.05062749
 C      6   3   2     2.655686178065   107.77200450     0.81029657
 H      6   3   2     2.038789106136   126.28808870   178.34688657
 H      8   6   3     2.035422639347   125.90571372   182.21056556
 C      1   2   3     4.705396178206   100.77837645    45.29771273
 C     11   1   2     2.661245664911    74.37353707   116.95224339
 C     11   1   2     2.680222553002    73.73672681   231.71533529
 H     12  11   1     2.035047180789   126.17930871   244.75507830
 C     12  11   1     2.674271658046   107.62801305    66.06774805
 H     13  11   1     2.039032914146   126.23209166   114.31040517
 C     13  11   1     2.656069498209   107.86518666   292.48595059
 H     15  12  11     2.039285962461   125.83223214   181.08937309
 H     17  13  11     2.036125112080   125.94840995   177.61507022
 Cl     1   2   3     4.792858816705   123.16625043   249.69254847
 C     20   1   2     5.749345401529    66.58474268   263.34141593
 C     21  20   1     2.273563792711   119.86827267    35.81366664
 H     21  20   1     2.010575597939    59.84631683   213.87087256
 H      1   2   3     3.455119327975    65.62633322   123.26690636
 H     22  21  20     2.008000317593   174.57341787   151.45188446
 H      2   1   3     2.035431836436   120.25890068   237.88688808
 H     11   1   2     2.037188001761   119.27022567   354.43539919

---------------------
BASIS SET INFORMATION
---------------------
There are 4 groups of distinct atoms

 Group   1 Type Zr  : 7s7p5d2f1g contracted to 6s4p3d2f1g pattern {211111/4111/311/11/1}
 Group   2 Type C   : 12s6p3d1f contracted to 6s3p3d1f pattern {621111/411/111/1}
 Group   3 Type H   : 5s3p1d contracted to 3s3p1d pattern {311/111/1}
 Group   4 Type Cl  : 15s10p4d1f contracted to 6s6p4d1f pattern {732111/511111/1111/1}

Atom   0Zr   basis set group =>   1
Atom   1C    basis set group =>   2
Atom   2C    basis set group =>   2
Atom   3C    basis set group =>   2
Atom   4H    basis set group =>   3
Atom   5C    basis set group =>   2
Atom   6H    basis set group =>   3
Atom   7C    basis set group =>   2
Atom   8H    basis set group =>   3
Atom   9H    basis set group =>   3
Atom  10C    basis set group =>   2
Atom  11C    basis set group =>   2
Atom  12C    basis set group =>   2
Atom  13H    basis set group =>   3
Atom  14C    basis set group =>   2
Atom  15H    basis set group =>   3
Atom  16C    basis set group =>   2
Atom  17H    basis set group =>   3
Atom  18H    basis set group =>   3
Atom  19Cl   basis set group =>   4
Atom  20C    basis set group =>   2
Atom  21C    basis set group =>   2
Atom  22H    basis set group =>   3
Atom  23H    basis set group =>   3
Atom  24H    basis set group =>   3
Atom  25H    basis set group =>   3
Atom  26H    basis set group =>   3
----------------------------------
AUXILIARY/JK BASIS SET INFORMATION
----------------------------------
There are 4 groups of distinct atoms

 Group   1 Type Zr  : 13s12p10d9f6g3h2i contracted to 11s10p9d8f6g3h2i pattern {31111111111/3111111111/211111111/21111111/111111/111/11}
 Group   2 Type C   : 14s10p6d2f1g contracted to 10s8p5d1f1g pattern {5111111111/31111111/21111/2/1}
 Group   3 Type H   : 4s2p2d contracted to 2s2p2d pattern {31/11/11}
 Group   4 Type Cl  : 16s12p10d4f1g contracted to 13s11p9d4f1g pattern {4111111111111/21111111111/211111111/1111/1}

Atom   0Zr   basis set group =>   1
Atom   1C    basis set group =>   2
Atom   2C    basis set group =>   2
Atom   3C    basis set group =>   2
Atom   4H    basis set group =>   3
Atom   5C    basis set group =>   2
Atom   6H    basis set group =>   3
Atom   7C    basis set group =>   2
Atom   8H    basis set group =>   3
Atom   9H    basis set group =>   3
Atom  10C    basis set group =>   2
Atom  11C    basis set group =>   2
Atom  12C    basis set group =>   2
Atom  13H    basis set group =>   3
Atom  14C    basis set group =>   2
Atom  15H    basis set group =>   3
Atom  16C    basis set group =>   2
Atom  17H    basis set group =>   3
Atom  18H    basis set group =>   3
Atom  19Cl   basis set group =>   4
Atom  20C    basis set group =>   2
Atom  21C    basis set group =>   2
Atom  22H    basis set group =>   3
Atom  23H    basis set group =>   3
Atom  24H    basis set group =>   3
Atom  25H    basis set group =>   3
Atom  26H    basis set group =>   3
-------------------------
ECP PARAMETER INFORMATION
-------------------------

 Group 1, Type Zr ECP Def2-ECP (replacing 28 core electrons, lmax=3)

Atom   0Zr   ECP group =>   1



           ************************************************************
           *        Program running with 24 parallel MPI-processes    *
           *              working on a common directory               *
           ************************************************************
------------------------------------------------------------------------------
                           ORCA GTO INTEGRAL CALCULATION
------------------------------------------------------------------------------

                         BASIS SET STATISTICS AND STARTUP INFO

 # of primitive gaussian shells          ...  433
 # of primitive gaussian functions       ... 1019
 # of contracted shells                  ...  280
 # of contracted basis functions         ...  772
 Highest angular momentum                ...    4
 Maximum contraction depth               ...    7
 Integral package used                   ... LIBINT
 Integral threshhold            Thresh   ...  1.000e-10
 Primitive cut-off              TCut     ...  1.000e-11


------------------------------ INTEGRAL EVALUATION ----------------------------


 * One electron integrals 

   ECP integrals                         ... done
 Pre-screening matrix                    ... done
 Shell pair data                         ... done (   0.010 sec)



           ************************************************************
           *        Program running with 24 parallel MPI-processes    *
           *              working on a common directory               *
           ************************************************************
-------------------------------------------------------------------------------
                                 ORCA SCF
-------------------------------------------------------------------------------

------------
SCF SETTINGS
------------
Hamiltonian:
 Density Functional     Method          .... DFT(GTOs)
 Exchange Functional    Exchange        .... WB97M-V
 Correlation Functional Correlation     .... WB97M-V
 Gradients option       PostSCFGGA      .... off
 Hybrid DFT is turned on
   Fraction HF Exchange ScalHFX         ....  0.150000
   Scaling of DF-GGA-X  ScalDFX         ....  0.000000
   Scaling of DF-GGA-C  ScalDFC         ....  1.000000
   Scaling of DF-LDA-C  ScalLDAC        ....  1.000000
   Perturbative correction              ....  0.000000
   Density functional embedding theory  .... OFF
 Long-range corrected/Screened/Range-Separated Hybrid DFT is turned on
   Amount of maximum screened exact exchange              ....  0.850000
   Range separation parameter mu (erf(mu*r12)/r12)        ....  0.300000
   NL short-range parameter             ....  6.000000
   NL long-range parameter              ....  0.010000


General Settings:
 Integral files         IntName         .... TMB01_T1
 Hartree-Fock type      HFTyp           .... RHF
 Total Charge           Charge          ....    0
 Multiplicity           Mult            ....    1
 Number of Electrons    NEL             ....  114
 Basis Dimension        Dim             ....  772
 Nuclear Repulsion      ENuc            ....   1051.2717291813 Eh

Convergence Acceleration:
 DIIS                   CNVDIIS         .... on
   Start iteration      DIISMaxIt       ....    12
   Startup error        DIISStart       ....  0.200000
   # of expansion vecs  DIISMaxEq       ....     5
   Bias factor          DIISBfac        ....   1.050
   Max. coefficient     DIISMaxC        ....  10.000
 Newton-Raphson         CNVNR           .... off
 SOSCF                  CNVSOSCF        .... off
 Level Shifting         CNVShift        .... on
   Level shift para.    LevelShift      ....    0.2500
   Turn off err/grad.   ShiftErr        ....    0.0010
 Zerner damping         CNVZerner       .... off
 Static damping         CNVDamp         .... on
   Fraction old density DampFac         ....    0.7000
   Max. Damping (<1)    DampMax         ....    0.9800
   Min. Damping (>=0)   DampMin         ....    0.0000
   Turn off err/grad.   DampErr         ....    0.1000
 Fernandez-Rico         CNVRico         .... off

SCF Procedure:
 Maximum # iterations   MaxIter         ....   125
 SCF integral mode      SCFMode         .... Direct
   Integral package                     .... LIBINT
 Reset frequency        DirectResetFreq ....    20
 Integral Threshold     Thresh          ....  1.000e-10 Eh
 Primitive CutOff       TCut            ....  1.000e-11 Eh

Convergence Tolerance:
 Convergence Check Mode ConvCheckMode   .... Total+1el-Energy
 Convergence forced     ConvForced      .... 0
 Energy Change          TolE            ....  1.000e-06 Eh
 1-El. energy change                    ....  1.000e-03 Eh
 DIIS Error             TolErr          ....  1.000e-06


Diagonalization of the overlap matrix:
Smallest eigenvalue                        ... 3.883e-07
Time for diagonalization                   ...    0.091 sec
Threshold for overlap eigenvalues          ... 1.000e-08
Number of eigenvalues below threshold      ... 0
Time for construction of square roots      ...    0.072 sec
Total time needed                          ...    0.165 sec

-------------------
DFT GRID GENERATION
-------------------

General Integration Accuracy     IntAcc      ...  4.670
Radial Grid Type                 RadialGrid  ... Gauss-Chebyshev
Angular Grid (max. acc.)         AngularGrid ... Lebedev-302
Angular grid pruning method      GridPruning ... 3 (G Style)
Weight generation scheme         WeightScheme... Becke
Basis function cutoff            BFCut       ...    1.0000e-10
Integration weight cutoff        WCut        ...    1.0000e-14
Grids for H and He will be reduced by one unit

# of grid points (after initial pruning)     ... 136086 (   0.0 sec)
# of grid points (after weights+screening)   ... 118837 (   0.1 sec)
nearest neighbour list constructed           ...    0.0 sec
Grid point re-assignment to atoms done       ...    0.0 sec
Grid point division into batches done        ...    0.4 sec
Reduced shell lists constructed in    0.5 sec

Total number of grid points                  ...   118837
Total number of batches                      ...     1870
Average number of points per batch           ...       63
Average number of grid points per atom       ...     4401
Average number of shells per batch           ...   212.41 (75.86%)
Average number of basis functions per batch  ...   614.05 (79.54%)
Average number of large shells per batch     ...   171.51 (80.74%)
Average number of large basis fcns per batch ...   482.87 (78.64%)
Maximum spatial batch extension              ...   1.82,  2.00,  1.97 au
Average spatial batch extension              ...   0.05,  0.05,  0.05 au

Time for grid setup =    0.609 sec

------------------------------
INITIAL GUESS: MODEL POTENTIAL
------------------------------
Loading Hartree-Fock densities                     ... done
  calling /sw/apps/orca/orca_4_2_0_linux_x86-64_openmpi314/orca TMB01_T1_atom40.inp > TMB01_T1_atom40.out in order to generate an atomic fitting density for atom 0 (Zr with ECP) on-the-fly... 
    atom 0 (Zr), assumed electronic state with S=3: 1s2 2s2 2p6 3s2 3p6 4s2 3d10 4p6 4d2 5s2           ... done
Calculating cut-offs                               ... done
Setting up the integral package                    ... done
Initializing the effective Hamiltonian             ... done
Starting the Coulomb interaction                   ... done (   0.1 sec)
Reading the grid                                   ... done
Mapping shells                                     ... done
Starting the XC term evaluation                    ... done (   0.4 sec)
  promolecular density results
     # of electrons  =    141.994799388
     EX              =   -202.828357327
     EC              =     -5.501365280
     EX+EC           =   -208.329722607
Transforming the Hamiltonian                       ... done (   0.1 sec)
Diagonalizing the Hamiltonian                      ... done (   0.1 sec)
Back transforming the eigenvectors                 ... done (   0.0 sec)
Now organizing SCF variables                       ... done
                      ------------------
                      INITIAL GUESS DONE (   3.5 sec)
                      ------------------
--------------
SCF ITERATIONS
--------------
ITER       Energy         Delta-E        Max-DP      RMS-DP      [F,P]     Damp
               ***  Starting incremental Fock matrix formation  ***
  0   -969.8617342587   0.000000000000 1.16174774  0.00773104  0.7361587 0.7000
  1   -971.2717107854  -1.409976526675 0.77294380  0.00570083  0.3361560 0.7000
                               ***Turning on DIIS***
  2   -971.7893594425  -0.517648657090 0.50782440  0.00308414  0.1715282 0.7000
  3   -972.0534236590  -0.264064216580 0.46156084  0.00278829  0.1036108 0.7000
  4   -972.2404935773  -0.187069918270 1.43021725  0.00820516  0.0685325 0.0000
  5   -972.7065812037  -0.466087626346 0.27649787  0.00171344  0.0360172 0.0000
  6   -972.7130380222  -0.006456818527 0.16324755  0.00088013  0.0089180 0.0000
  7   -972.7139961257  -0.000958103473 0.06936482  0.00047098  0.0047908 0.0000
  8   -972.7142591974  -0.000263071718 0.03283120  0.00027445  0.0033818 0.0000
  9   -972.7143558451  -0.000096647751 0.01833425  0.00014037  0.0011079 0.0000
 10   -972.7143788704  -0.000023025248 0.02726371  0.00013933  0.0005375 0.0000
 11   -972.7143861788  -0.000007308439 0.00842172  0.00005214  0.0002258 0.0000
                 **** Energy Check signals convergence ****

               *****************************************************
               *                     SUCCESS                       *
               *           SCF CONVERGED AFTER  12 CYCLES          *
               *****************************************************


Setting up the DFT-NL grid :

General Integration Accuracy     IntAcc      ...  4.340
Radial Grid Type                 RadialGrid  ... Gauss-Chebyshev
Angular Grid (max. acc.)         AngularGrid ... Lebedev-110
Angular grid pruning method      GridPruning ... 3 (G Style)
Weight generation scheme         WeightScheme... Becke
Basis function cutoff            BFCut       ...    1.0000e-10
Integration weight cutoff        WCut        ...    1.0000e-14
Grids for H and He will be reduced by one unit

# of grid points (after initial pruning)     ...  35318 (   0.0 sec)
# of grid points (after weights+screening)   ...  31419 (   0.0 sec)
nearest neighbour list constructed           ...    0.0 sec
Grid point re-assignment to atoms done       ...    0.0 sec
Grid point division into batches done        ...    0.0 sec
Reduced shell lists constructed in    0.1 sec

Total number of grid points                  ...    31419
Total number of batches                      ...      507
Average number of points per batch           ...       61
Average number of grid points per atom       ...     1164
Average number of shells per batch           ...   213.22 (76.15%)
Average number of basis functions per batch  ...   617.74 (80.02%)
Average number of large shells per batch     ...   174.04 (81.63%)
Average number of large basis fcns per batch ...   494.13 (79.99%)
Maximum spatial batch extension              ...   2.84,  2.34,  2.68 au
Average spatial batch extension              ...   0.08,  0.08,  0.08 au

Final grid set up in    0.1 sec

-------------------------------------------------------------------------------
                         DFT-NL dispersion correction                          
-------------------------------------------------------------------------------

SC Energy -972.714386877 
NL    Energy 0.413910336 
SC+NL Energy -972.300476542 
NL done in    0.4 sec
-------------------------------------------------------------------------------

----------------
TOTAL SCF ENERGY
----------------

Total Energy       :         -972.30047654 Eh          -26457.64105 eV

Components:
Nuclear Repulsion  :         1051.27172918 Eh           28606.55808 eV
Electronic Energy  :        -2023.57220572 Eh          -55064.19913 eV
One Electron Energy:        -3430.98032027 Eh          -93361.72093 eV
Two Electron Energy:         1407.40811455 Eh           38297.52181 eV

Virial components:
Potential Energy   :        -1910.81790950 Eh          -51995.99874 eV
Kinetic Energy     :          938.51743296 Eh           25538.35770 eV
Virial Ratio       :            2.03599618


DFT components:
N(Alpha)           :       57.000223467189 electrons
N(Beta)            :       57.000223467189 electrons
N(Total)           :      114.000446934379 electrons
E(X)               :      -70.629694252954 Eh       
E(C)               :       -3.749250961068 Eh       
NL Energy, E(C,NL) :        0.413910335654 Eh       
E(XC)              :      -73.965034878369 Eh       
DFET-embed. en.    :        0.000000000000 Eh       

---------------
SCF CONVERGENCE
---------------

  Last Energy change         ...   -6.9843e-07  Tolerance :   1.0000e-06
  Last MAX-Density change    ...    1.3720e-02  Tolerance :   1.0000e-05
  Last RMS-Density change    ...    5.3241e-05  Tolerance :   1.0000e-06
  Last DIIS Error            ...    6.4693e-05  Tolerance :   1.0000e-06

             **** THE GBW FILE WAS UPDATED (TMB01_T1.gbw) ****
             **** DENSITY FILE WAS UPDATED (TMB01_T1.scfp) ****
             **** ENERGY FILE WAS UPDATED (TMB01_T1.en.tmp) ****
             **** THE GBW FILE WAS UPDATED (TMB01_T1.gbw) ****
             **** DENSITY FILE WAS UPDATED (TMB01_T1.scfp) ****
----------------
ORBITAL ENERGIES
----------------

  NO   OCC          E(Eh)            E(eV) 
   0   2.0000    -101.795836     -2770.0055 
   1   2.0000     -10.369496      -282.1683 
   2   2.0000     -10.365633      -282.0632 
   3   2.0000     -10.364681      -282.0373 
   4   2.0000     -10.364516      -282.0328 
   5   2.0000     -10.361633      -281.9544 
   6   2.0000     -10.361091      -281.9396 
   7   2.0000     -10.360385      -281.9204 
   8   2.0000     -10.360248      -281.9167 
   9   2.0000     -10.360008      -281.9102 
  10   2.0000     -10.359703      -281.9018 
  11   2.0000     -10.357158      -281.8326 
  12   2.0000     -10.357052      -281.8297 
  13   2.0000      -9.570253      -260.4198 
  14   2.0000      -7.270753      -197.8472 
  15   2.0000      -7.268677      -197.7907 
  16   2.0000      -7.268463      -197.7849 
  17   2.0000      -2.251916       -61.2777 
  18   2.0000      -1.386107       -37.7179 
  19   2.0000      -1.381207       -37.5846 
  20   2.0000      -1.372544       -37.3488 
  21   2.0000      -1.024006       -27.8646 
  22   2.0000      -1.012697       -27.5569 
  23   2.0000      -0.897013       -24.4090 
  24   2.0000      -0.861719       -23.4486 
  25   2.0000      -0.846489       -23.0341 
  26   2.0000      -0.845594       -23.0098 
  27   2.0000      -0.844223       -22.9725 
  28   2.0000      -0.839737       -22.8504 
  29   2.0000      -0.689946       -18.7744 
  30   2.0000      -0.674533       -18.3550 
  31   2.0000      -0.669474       -18.2173 
  32   2.0000      -0.664443       -18.0804 
  33   2.0000      -0.663234       -18.0475 
  34   2.0000      -0.657365       -17.8878 
  35   2.0000      -0.648455       -17.6454 
  36   2.0000      -0.614206       -16.7134 
  37   2.0000      -0.538118       -14.6429 
  38   2.0000      -0.513570       -13.9749 
  39   2.0000      -0.512796       -13.9539 
  40   2.0000      -0.510501       -13.8914 
  41   2.0000      -0.508464       -13.8360 
  42   2.0000      -0.494278       -13.4500 
  43   2.0000      -0.491623       -13.3777 
  44   2.0000      -0.491253       -13.3677 
  45   2.0000      -0.488876       -13.3030 
  46   2.0000      -0.486768       -13.2456 
  47   2.0000      -0.438474       -11.9315 
  48   2.0000      -0.418547       -11.3893 
  49   2.0000      -0.400256       -10.8915 
  50   2.0000      -0.393698       -10.7131 
  51   2.0000      -0.378674       -10.3042 
  52   2.0000      -0.368422       -10.0253 
  53   2.0000      -0.367202        -9.9921 
  54   2.0000      -0.350135        -9.5277 
  55   2.0000      -0.325060        -8.8453 
  56   2.0000      -0.315410        -8.5827 
  57   0.0000       0.025857         0.7036 
  58   0.0000       0.033220         0.9039 
  59   0.0000       0.035496         0.9659 
  60   0.0000       0.038191         1.0392 
  61   0.0000       0.041017         1.1161 
  62   0.0000       0.054950         1.4953 
  63   0.0000       0.057901         1.5756 
  64   0.0000       0.058883         1.6023 
  65   0.0000       0.062558         1.7023 
  66   0.0000       0.065389         1.7793 
  67   0.0000       0.067335         1.8323 
  68   0.0000       0.072342         1.9685 
  69   0.0000       0.077714         2.1147 
  70   0.0000       0.084840         2.3086 
  71   0.0000       0.086943         2.3658 
  72   0.0000       0.094313         2.5664 
  73   0.0000       0.095262         2.5922 
  74   0.0000       0.098587         2.6827 
  75   0.0000       0.102018         2.7760 
  76   0.0000       0.105973         2.8837 
  77   0.0000       0.108668         2.9570 
  78   0.0000       0.114679         3.1206 
  79   0.0000       0.122144         3.3237 
  80   0.0000       0.127071         3.4578 
  81   0.0000       0.128480         3.4961 
  82   0.0000       0.132019         3.5924 
  83   0.0000       0.137966         3.7542 
  84   0.0000       0.142640         3.8814 
  85   0.0000       0.152097         4.1388 
  86   0.0000       0.157534         4.2867 
  87   0.0000       0.157862         4.2957 
  88   0.0000       0.162102         4.4110 
  89   0.0000       0.164807         4.4846 
  90   0.0000       0.166003         4.5172 
  91   0.0000       0.172177         4.6852 
  92   0.0000       0.181020         4.9258 
  93   0.0000       0.189082         5.1452 
  94   0.0000       0.194110         5.2820 
  95   0.0000       0.198959         5.4139 
  96   0.0000       0.203657         5.5418 
  97   0.0000       0.207775         5.6539 
  98   0.0000       0.211351         5.7512 
  99   0.0000       0.216557         5.8928 
 100   0.0000       0.217588         5.9209 
 101   0.0000       0.218264         5.9393 
 102   0.0000       0.220820         6.0088 
 103   0.0000       0.224814         6.1175 
 104   0.0000       0.228206         6.2098 
 105   0.0000       0.238555         6.4914 
 106   0.0000       0.241645         6.5755 
 107   0.0000       0.246686         6.7127 
 108   0.0000       0.253337         6.8936 
 109   0.0000       0.258778         7.0417 
 110   0.0000       0.265815         7.2332 
 111   0.0000       0.271796         7.3959 
 112   0.0000       0.276384         7.5208 
 113   0.0000       0.280858         7.6425 
 114   0.0000       0.285326         7.7641 
 115   0.0000       0.285911         7.7800 
 116   0.0000       0.289532         7.8786 
 117   0.0000       0.292727         7.9655 
 118   0.0000       0.297748         8.1021 
 119   0.0000       0.301660         8.2086 
 120   0.0000       0.304561         8.2875 
 121   0.0000       0.307570         8.3694 
 122   0.0000       0.312608         8.5065 
 123   0.0000       0.313095         8.5198 
 124   0.0000       0.316017         8.5992 
 125   0.0000       0.318897         8.6776 
 126   0.0000       0.321720         8.7544 
 127   0.0000       0.324219         8.8224 
 128   0.0000       0.326088         8.8733 
 129   0.0000       0.329964         8.9788 
 130   0.0000       0.333534         9.0759 
 131   0.0000       0.335234         9.1222 
 132   0.0000       0.336306         9.1514 
 133   0.0000       0.339824         9.2471 
 134   0.0000       0.341345         9.2885 
 135   0.0000       0.345888         9.4121 
 136   0.0000       0.347906         9.4670 
 137   0.0000       0.350944         9.5497 
 138   0.0000       0.353487         9.6189 
 139   0.0000       0.356931         9.7126 
 140   0.0000       0.362063         9.8522 
 141   0.0000       0.365383         9.9426 
 142   0.0000       0.368363        10.0237 
 143   0.0000       0.369281        10.0486 
 144   0.0000       0.373815        10.1720 
 145   0.0000       0.375215        10.2101 
 146   0.0000       0.380149        10.3444 
 147   0.0000       0.385852        10.4996 
 148   0.0000       0.388586        10.5740 
 149   0.0000       0.391054        10.6411 
 150   0.0000       0.397151        10.8070 
 151   0.0000       0.399859        10.8807 
 152   0.0000       0.407134        11.0787 
 153   0.0000       0.409739        11.1496 
 154   0.0000       0.412778        11.2323 
 155   0.0000       0.415423        11.3042 
 156   0.0000       0.416213        11.3257 
 157   0.0000       0.422015        11.4836 
 158   0.0000       0.424743        11.5578 
 159   0.0000       0.426646        11.6096 
 160   0.0000       0.430862        11.7243 
 161   0.0000       0.433383        11.7929 
 162   0.0000       0.434309        11.8181 
 163   0.0000       0.434655        11.8276 
 164   0.0000       0.439476        11.9588 
 165   0.0000       0.444377        12.0921 
 166   0.0000       0.446874        12.1601 
 167   0.0000       0.452796        12.3212 
 168   0.0000       0.454383        12.3644 
 169   0.0000       0.458536        12.4774 
 170   0.0000       0.462853        12.5949 
 171   0.0000       0.466255        12.6875 
 172   0.0000       0.476789        12.9741 
 173   0.0000       0.478629        13.0242 
 174   0.0000       0.483744        13.1634 
 175   0.0000       0.488795        13.3008 
 176   0.0000       0.493889        13.4394 
 177   0.0000       0.499624        13.5955 
 178   0.0000       0.508165        13.8279 
 179   0.0000       0.512070        13.9341 
 180   0.0000       0.513718        13.9790 
 181   0.0000       0.518255        14.1024 
 182   0.0000       0.521158        14.1814 
 183   0.0000       0.522205        14.2099 
 184   0.0000       0.529686        14.4135 
 185   0.0000       0.534178        14.5357 
 186   0.0000       0.534736        14.5509 
 187   0.0000       0.535424        14.5696 
 188   0.0000       0.544141        14.8068 
 189   0.0000       0.546533        14.8719 
 190   0.0000       0.551262        15.0006 
 191   0.0000       0.556875        15.1533 
 192   0.0000       0.557135        15.1604 
 193   0.0000       0.560198        15.2438 
 194   0.0000       0.563924        15.3452 
 195   0.0000       0.569946        15.5090 
 196   0.0000       0.576069        15.6756 
 197   0.0000       0.576865        15.6973 
 198   0.0000       0.581478        15.8228 
 199   0.0000       0.583055        15.8657 
 200   0.0000       0.587500        15.9867 
 201   0.0000       0.592658        16.1270 
 202   0.0000       0.601332        16.3631 
 203   0.0000       0.604046        16.4369 
 204   0.0000       0.606759        16.5107 
 205   0.0000       0.612131        16.6569 
 206   0.0000       0.618713        16.8360 
 207   0.0000       0.623172        16.9574 
 208   0.0000       0.629129        17.1195 
 209   0.0000       0.636368        17.3164 
 210   0.0000       0.638239        17.3674 
 211   0.0000       0.648969        17.6594 
 212   0.0000       0.649947        17.6860 
 213   0.0000       0.654250        17.8031 
 214   0.0000       0.657741        17.8980 
 215   0.0000       0.658644        17.9226 
 216   0.0000       0.666292        18.1307 
 217   0.0000       0.667755        18.1705 
 218   0.0000       0.670863        18.2551 
 219   0.0000       0.676441        18.4069 
 220   0.0000       0.678561        18.4646 
 221   0.0000       0.682066        18.5600 
 222   0.0000       0.688936        18.7469 
 223   0.0000       0.692738        18.8504 
 224   0.0000       0.693901        18.8820 
 225   0.0000       0.702057        19.1039 
 226   0.0000       0.707370        19.2485 
 227   0.0000       0.710961        19.3462 
 228   0.0000       0.711192        19.3525 
 229   0.0000       0.714512        19.4428 
 230   0.0000       0.716828        19.5059 
 231   0.0000       0.721553        19.6344 
 232   0.0000       0.721991        19.6464 
 233   0.0000       0.723258        19.6809 
 234   0.0000       0.729405        19.8481 
 235   0.0000       0.731634        19.9088 
 236   0.0000       0.736314        20.0361 
 237   0.0000       0.741657        20.1815 
 238   0.0000       0.744279        20.2529 
 239   0.0000       0.745949        20.2983 
 240   0.0000       0.748360        20.3639 
 241   0.0000       0.753289        20.4980 
 242   0.0000       0.758281        20.6339 
 243   0.0000       0.760472        20.6935 
 244   0.0000       0.762700        20.7541 
 245   0.0000       0.768300        20.9065 
 246   0.0000       0.772148        21.0112 
 247   0.0000       0.775368        21.0988 
 248   0.0000       0.780615        21.2416 
 249   0.0000       0.785128        21.3644 
 250   0.0000       0.790991        21.5240 
 251   0.0000       0.792453        21.5637 
 252   0.0000       0.795427        21.6447 
 253   0.0000       0.799314        21.7504 
 254   0.0000       0.802221        21.8295 
 255   0.0000       0.806492        21.9458 
 256   0.0000       0.808936        22.0123 
 257   0.0000       0.811945        22.0942 
 258   0.0000       0.814742        22.1703 
 259   0.0000       0.819894        22.3105 
 260   0.0000       0.823524        22.4092 
 261   0.0000       0.826983        22.5033 
 262   0.0000       0.828320        22.5397 
 263   0.0000       0.831469        22.6254 
 264   0.0000       0.835601        22.7378 
 265   0.0000       0.839788        22.8518 
 266   0.0000       0.841869        22.9084 
 267   0.0000       0.848359        23.0850 
 268   0.0000       0.853617        23.2281 
 269   0.0000       0.856977        23.3195 
 270   0.0000       0.861689        23.4477 
 271   0.0000       0.866065        23.5668 
 272   0.0000       0.866654        23.5828 
 273   0.0000       0.873554        23.7706 
 274   0.0000       0.881161        23.9776 
 275   0.0000       0.890856        24.2414 
 276   0.0000       0.897751        24.4291 
 277   0.0000       0.907705        24.6999 
 278   0.0000       0.913454        24.8563 
 279   0.0000       0.918892        25.0043 
 280   0.0000       0.928300        25.2603 
 281   0.0000       0.933418        25.3996 
 282   0.0000       0.936681        25.4884 
 283   0.0000       0.951903        25.9026 
 284   0.0000       0.957786        26.0627 
 285   0.0000       0.964340        26.2410 
 286   0.0000       0.969065        26.3696 
 287   0.0000       0.973552        26.4917 
 288   0.0000       0.980180        26.6720 
 289   0.0000       0.988313        26.8934 
 290   0.0000       1.003621        27.3099 
 291   0.0000       1.014324        27.6012 
 292   0.0000       1.018078        27.7033 
 293   0.0000       1.024131        27.8680 
 294   0.0000       1.029385        28.0110 
 295   0.0000       1.034198        28.1420 
 296   0.0000       1.038824        28.2678 
 297   0.0000       1.055887        28.7321 
 298   0.0000       1.059261        28.8240 
 299   0.0000       1.065189        28.9853 
 300   0.0000       1.075585        29.2682 
 301   0.0000       1.087138        29.5825 
 302   0.0000       1.091242        29.6942 
 303   0.0000       1.098948        29.9039 
 304   0.0000       1.108361        30.1600 
 305   0.0000       1.113408        30.2974 
 306   0.0000       1.117627        30.4122 
 307   0.0000       1.124284        30.5933 
 308   0.0000       1.138330        30.9755 
 309   0.0000       1.145366        31.1670 
 310   0.0000       1.151736        31.3403 
 311   0.0000       1.160179        31.5701 
 312   0.0000       1.180145        32.1134 
 313   0.0000       1.187642        32.3174 
 314   0.0000       1.190728        32.4014 
 315   0.0000       1.195306        32.5259 
 316   0.0000       1.205096        32.7923 
 317   0.0000       1.212348        32.9897 
 318   0.0000       1.217998        33.1434 
 319   0.0000       1.221487        33.2384 
 320   0.0000       1.237500        33.6741 
 321   0.0000       1.239122        33.7182 
 322   0.0000       1.248292        33.9677 
 323   0.0000       1.263319        34.3767 
 324   0.0000       1.267869        34.5005 
 325   0.0000       1.270901        34.5830 
 326   0.0000       1.287079        35.0232 
 327   0.0000       1.294442        35.2236 
 328   0.0000       1.305124        35.5142 
 329   0.0000       1.315484        35.7961 
 330   0.0000       1.330936        36.2166 
 331   0.0000       1.337801        36.4034 
 332   0.0000       1.340995        36.4903 
 333   0.0000       1.349888        36.7323 
 334   0.0000       1.366512        37.1847 
 335   0.0000       1.368891        37.2494 
 336   0.0000       1.377720        37.4897 
 337   0.0000       1.393951        37.9313 
 338   0.0000       1.402015        38.1508 
 339   0.0000       1.405045        38.2332 
 340   0.0000       1.412113        38.4255 
 341   0.0000       1.426234        38.8098 
 342   0.0000       1.431063        38.9412 
 343   0.0000       1.440385        39.1949 
 344   0.0000       1.444122        39.2966 
 345   0.0000       1.447083        39.3771 
 346   0.0000       1.452306        39.5193 
 347   0.0000       1.461372        39.7660 
 348   0.0000       1.466550        39.9069 
 349   0.0000       1.473422        40.0938 
 350   0.0000       1.474580        40.1253 
 351   0.0000       1.483155        40.3587 
 352   0.0000       1.490712        40.5643 
 353   0.0000       1.496479        40.7213 
 354   0.0000       1.508728        41.0546 
 355   0.0000       1.509800        41.0838 
 356   0.0000       1.513344        41.1802 
 357   0.0000       1.522429        41.4274 
 358   0.0000       1.525965        41.5236 
 359   0.0000       1.532576        41.7035 
 360   0.0000       1.541613        41.9494 
 361   0.0000       1.546414        42.0801 
 362   0.0000       1.549162        42.1548 
 363   0.0000       1.553935        42.2847 
 364   0.0000       1.556381        42.3513 
 365   0.0000       1.565361        42.5956 
 366   0.0000       1.572845        42.7993 
 367   0.0000       1.574969        42.8571 
 368   0.0000       1.579709        42.9861 
 369   0.0000       1.586510        43.1711 
 370   0.0000       1.594162        43.3794 
 371   0.0000       1.595821        43.4245 
 372   0.0000       1.605076        43.6763 
 373   0.0000       1.608613        43.7726 
 374   0.0000       1.624983        44.2180 
 375   0.0000       1.626407        44.2568 
 376   0.0000       1.633086        44.4385 
 377   0.0000       1.638631        44.5894 
 378   0.0000       1.650398        44.9096 
 379   0.0000       1.664652        45.2975 
 380   0.0000       1.674792        45.5734 
 381   0.0000       1.675111        45.5821 
 382   0.0000       1.693942        46.0945 
 383   0.0000       1.699699        46.2512 
 384   0.0000       1.700981        46.2860 
 385   0.0000       1.710233        46.5378 
 386   0.0000       1.726835        46.9896 
 387   0.0000       1.738104        47.2962 
 388   0.0000       1.758719        47.8572 
 389   0.0000       1.763679        47.9921 
 390   0.0000       1.772947        48.2443 
 391   0.0000       1.783120        48.5212 
 392   0.0000       1.789557        48.6963 
 393   0.0000       1.802830        49.0575 
 394   0.0000       1.816119        49.4191 
 395   0.0000       1.822201        49.5846 
 396   0.0000       1.844447        50.1899 
 397   0.0000       1.852863        50.4190 
 398   0.0000       1.857077        50.5336 
 399   0.0000       1.868101        50.8336 
 400   0.0000       1.873017        50.9674 
 401   0.0000       1.890817        51.4517 
 402   0.0000       1.901966        51.7551 
 403   0.0000       1.913268        52.0627 
 404   0.0000       1.918513        52.2054 
 405   0.0000       1.922826        52.3228 
 406   0.0000       1.927684        52.4549 
 407   0.0000       1.931361        52.5550 
 408   0.0000       1.937043        52.7096 
 409   0.0000       1.949585        53.0509 
 410   0.0000       1.959162        53.3115 
 411   0.0000       1.960739        53.3544 
 412   0.0000       1.973386        53.6986 
 413   0.0000       1.983568        53.9756 
 414   0.0000       1.984621        54.0043 
 415   0.0000       1.988683        54.1148 
 416   0.0000       1.993564        54.2476 
 417   0.0000       2.007198        54.6186 
 418   0.0000       2.016155        54.8624 
 419   0.0000       2.027837        55.1803 
 420   0.0000       2.038486        55.4700 
 421   0.0000       2.039593        55.5001 
 422   0.0000       2.049836        55.7789 
 423   0.0000       2.058299        56.0092 
 424   0.0000       2.067220        56.2519 
 425   0.0000       2.078200        56.5507 
 426   0.0000       2.087163        56.7946 
 427   0.0000       2.095054        57.0093 
 428   0.0000       2.103923        57.2506 
 429   0.0000       2.117013        57.6068 
 430   0.0000       2.121189        57.7205 
 431   0.0000       2.140324        58.2412 
 432   0.0000       2.153150        58.5902 
 433   0.0000       2.170362        59.0586 
 434   0.0000       2.178048        59.2677 
 435   0.0000       2.185456        59.4693 
 436   0.0000       2.187787        59.5327 
 437   0.0000       2.202285        59.9272 
 438   0.0000       2.210380        60.1475 
 439   0.0000       2.224045        60.5193 
 440   0.0000       2.228714        60.6464 
 441   0.0000       2.241869        61.0044 
 442   0.0000       2.250710        61.2449 
 443   0.0000       2.258506        61.4571 
 444   0.0000       2.272530        61.8387 
 445   0.0000       2.287972        62.2589 
 446   0.0000       2.299246        62.5657 
 447   0.0000       2.308318        62.8125 
 448   0.0000       2.313353        62.9495 
 449   0.0000       2.333988        63.5110 
 450   0.0000       2.341523        63.7161 
 451   0.0000       2.360639        64.2363 
 452   0.0000       2.371013        64.5185 
 453   0.0000       2.386563        64.9417 
 454   0.0000       2.393777        65.1380 
 455   0.0000       2.411095        65.6092 
 456   0.0000       2.433718        66.2248 
 457   0.0000       2.447787        66.6077 
 458   0.0000       2.461635        66.9845 
 459   0.0000       2.469485        67.1981 
 460   0.0000       2.475833        67.3708 
 461   0.0000       2.492809        67.8328 
 462   0.0000       2.524207        68.6872 
 463   0.0000       2.542604        69.1878 
 464   0.0000       2.543878        69.2224 
 465   0.0000       2.557335        69.5886 
 466   0.0000       2.559571        69.6495 
 467   0.0000       2.582385        70.2703 
 468   0.0000       2.592049        70.5332 
 469   0.0000       2.613559        71.1186 
 470   0.0000       2.629294        71.5467 
 471   0.0000       2.644463        71.9595 
 472   0.0000       2.657685        72.3193 
 473   0.0000       2.670491        72.6677 
 474   0.0000       2.687366        73.1270 
 475   0.0000       2.691786        73.2472 
 476   0.0000       2.693867        73.3039 
 477   0.0000       2.699031        73.4444 
 478   0.0000       2.703559        73.5676 
 479   0.0000       2.718861        73.9840 
 480   0.0000       2.729635        74.2771 
 481   0.0000       2.747148        74.7537 
 482   0.0000       2.751484        74.8717 
 483   0.0000       2.765453        75.2518 
 484   0.0000       2.769295        75.3564 
 485   0.0000       2.778930        75.6185 
 486   0.0000       2.784543        75.7713 
 487   0.0000       2.792083        75.9764 
 488   0.0000       2.796524        76.0973 
 489   0.0000       2.827904        76.9512 
 490   0.0000       2.835001        77.1443 
 491   0.0000       2.849585        77.5411 
 492   0.0000       2.869307        78.0778 
 493   0.0000       2.870241        78.1032 
 494   0.0000       2.878374        78.3245 
 495   0.0000       2.897198        78.8368 
 496   0.0000       2.906639        79.0937 
 497   0.0000       2.908940        79.1563 
 498   0.0000       2.909476        79.1709 
 499   0.0000       2.932625        79.8008 
 500   0.0000       2.939018        79.9748 
 501   0.0000       2.942788        80.0773 
 502   0.0000       2.949561        80.2616 
 503   0.0000       2.957698        80.4831 
 504   0.0000       2.963351        80.6369 
 505   0.0000       2.964166        80.6591 
 506   0.0000       2.974013        80.9270 
 507   0.0000       2.986657        81.2711 
 508   0.0000       3.001399        81.6722 
 509   0.0000       3.008865        81.8754 
 510   0.0000       3.029210        82.4290 
 511   0.0000       3.040533        82.7371 
 512   0.0000       3.053550        83.0913 
 513   0.0000       3.061108        83.2970 
 514   0.0000       3.068508        83.4983 
 515   0.0000       3.087941        84.0272 
 516   0.0000       3.104940        84.4897 
 517   0.0000       3.111329        84.6636 
 518   0.0000       3.121542        84.9415 
 519   0.0000       3.127604        85.1064 
 520   0.0000       3.132024        85.2267 
 521   0.0000       3.146398        85.6179 
 522   0.0000       3.151933        85.7685 
 523   0.0000       3.160467        86.0007 
 524   0.0000       3.170106        86.2630 
 525   0.0000       3.195855        86.9636 
 526   0.0000       3.199593        87.0653 
 527   0.0000       3.201702        87.1227 
 528   0.0000       3.210183        87.3535 
 529   0.0000       3.217300        87.5472 
 530   0.0000       3.230413        87.9040 
 531   0.0000       3.239141        88.1415 
 532   0.0000       3.259010        88.6822 
 533   0.0000       3.266496        88.8859 
 534   0.0000       3.270165        88.9857 
 535   0.0000       3.286377        89.4269 
 536   0.0000       3.296733        89.7087 
 537   0.0000       3.309320        90.0512 
 538   0.0000       3.314733        90.1985 
 539   0.0000       3.326919        90.5301 
 540   0.0000       3.343473        90.9805 
 541   0.0000       3.349393        91.1416 
 542   0.0000       3.364308        91.5475 
 543   0.0000       3.367803        91.6426 
 544   0.0000       3.384121        92.0866 
 545   0.0000       3.390116        92.2497 
 546   0.0000       3.406993        92.7090 
 547   0.0000       3.411969        92.8444 
 548   0.0000       3.418148        93.0125 
 549   0.0000       3.422315        93.1259 
 550   0.0000       3.430030        93.3359 
 551   0.0000       3.437793        93.5471 
 552   0.0000       3.441974        93.6609 
 553   0.0000       3.448828        93.8474 
 554   0.0000       3.453359        93.9707 
 555   0.0000       3.461712        94.1980 
 556   0.0000       3.467592        94.3580 
 557   0.0000       3.485248        94.8384 
 558   0.0000       3.490570        94.9832 
 559   0.0000       3.497475        95.1711 
 560   0.0000       3.505670        95.3941 
 561   0.0000       3.514609        95.6374 
 562   0.0000       3.522450        95.8508 
 563   0.0000       3.525551        95.9351 
 564   0.0000       3.527561        95.9898 
 565   0.0000       3.534979        96.1917 
 566   0.0000       3.539111        96.3041 
 567   0.0000       3.555121        96.7398 
 568   0.0000       3.565904        97.0332 
 569   0.0000       3.570599        97.1609 
 570   0.0000       3.572965        97.2253 
 571   0.0000       3.580514        97.4307 
 572   0.0000       3.583734        97.5184 
 573   0.0000       3.587450        97.6195 
 574   0.0000       3.594306        97.8060 
 575   0.0000       3.597481        97.8924 
 576   0.0000       3.602647        98.0330 
 577   0.0000       3.609960        98.2320 
 578   0.0000       3.617630        98.4407 
 579   0.0000       3.627495        98.7092 
 580   0.0000       3.627959        98.7218 
 581   0.0000       3.644165        99.1628 
 582   0.0000       3.648779        99.2883 
 583   0.0000       3.659239        99.5729 
 584   0.0000       3.666236        99.7633 
 585   0.0000       3.676699       100.0481 
 586   0.0000       3.680410       100.1490 
 587   0.0000       3.687890       100.3526 
 588   0.0000       3.700728       100.7019 
 589   0.0000       3.707212       100.8784 
 590   0.0000       3.711623       100.9984 
 591   0.0000       3.715842       101.1132 
 592   0.0000       3.723779       101.3292 
 593   0.0000       3.726356       101.3993 
 594   0.0000       3.732185       101.5579 
 595   0.0000       3.734925       101.6325 
 596   0.0000       3.740750       101.7910 
 597   0.0000       3.746741       101.9540 
 598   0.0000       3.755230       102.1850 
 599   0.0000       3.760082       102.3170 
 600   0.0000       3.772556       102.6565 
 601   0.0000       3.775314       102.7315 
 602   0.0000       3.782317       102.9221 
 603   0.0000       3.792857       103.2089 
 604   0.0000       3.797613       103.3383 
 605   0.0000       3.816793       103.8602 
 606   0.0000       3.824683       104.0749 
 607   0.0000       3.839209       104.4702 
 608   0.0000       3.853801       104.8672 
 609   0.0000       3.858354       104.9911 
 610   0.0000       3.866473       105.2121 
 611   0.0000       3.898997       106.0971 
 612   0.0000       3.907295       106.3229 
 613   0.0000       3.934407       107.0607 
 614   0.0000       3.938271       107.1658 
 615   0.0000       3.948553       107.4456 
 616   0.0000       3.963015       107.8391 
 617   0.0000       3.971784       108.0777 
 618   0.0000       3.994408       108.6934 
 619   0.0000       4.005269       108.9889 
 620   0.0000       4.011048       109.1462 
 621   0.0000       4.013209       109.2050 
 622   0.0000       4.019171       109.3672 
 623   0.0000       4.020095       109.3923 
 624   0.0000       4.034324       109.7795 
 625   0.0000       4.036421       109.8366 
 626   0.0000       4.062917       110.5576 
 627   0.0000       4.087394       111.2236 
 628   0.0000       4.100312       111.5752 
 629   0.0000       4.106738       111.7500 
 630   0.0000       4.122627       112.1824 
 631   0.0000       4.127988       112.3283 
 632   0.0000       4.139136       112.6316 
 633   0.0000       4.168032       113.4179 
 634   0.0000       4.175287       113.6153 
 635   0.0000       4.195280       114.1594 
 636   0.0000       4.204180       114.4015 
 637   0.0000       4.225357       114.9778 
 638   0.0000       4.239083       115.3513 
 639   0.0000       4.250721       115.6680 
 640   0.0000       4.260048       115.9218 
 641   0.0000       4.268608       116.1547 
 642   0.0000       4.284096       116.5762 
 643   0.0000       4.286033       116.6289 
 644   0.0000       4.297260       116.9344 
 645   0.0000       4.308095       117.2292 
 646   0.0000       4.313961       117.3888 
 647   0.0000       4.315836       117.4399 
 648   0.0000       4.326104       117.7193 
 649   0.0000       4.328184       117.7759 
 650   0.0000       4.332073       117.8817 
 651   0.0000       4.338987       118.0698 
 652   0.0000       4.346419       118.2721 
 653   0.0000       4.357234       118.5664 
 654   0.0000       4.359797       118.6361 
 655   0.0000       4.361534       118.6834 
 656   0.0000       4.365378       118.7880 
 657   0.0000       4.373280       119.0030 
 658   0.0000       4.386897       119.3735 
 659   0.0000       4.390521       119.4722 
 660   0.0000       4.398147       119.6797 
 661   0.0000       4.410090       120.0046 
 662   0.0000       4.427810       120.4868 
 663   0.0000       4.458635       121.3256 
 664   0.0000       4.473657       121.7344 
 665   0.0000       4.486962       122.0964 
 666   0.0000       4.516443       122.8987 
 667   0.0000       4.519872       122.9920 
 668   0.0000       4.538193       123.4905 
 669   0.0000       4.545421       123.6872 
 670   0.0000       4.551996       123.8661 
 671   0.0000       4.554413       123.9319 
 672   0.0000       4.562636       124.1556 
 673   0.0000       4.572783       124.4317 
 674   0.0000       4.582079       124.6847 
 675   0.0000       4.591882       124.9515 
 676   0.0000       4.594583       125.0250 
 677   0.0000       4.611354       125.4813 
 678   0.0000       4.625440       125.8646 
 679   0.0000       4.637276       126.1867 
 680   0.0000       4.650835       126.5556 
 681   0.0000       4.657210       126.7291 
 682   0.0000       4.674862       127.2095 
 683   0.0000       4.692872       127.6995 
 684   0.0000       4.709015       128.1388 
 685   0.0000       4.721238       128.4714 
 686   0.0000       4.725643       128.5913 
 687   0.0000       4.825950       131.3208 
 688   0.0000       4.831480       131.4712 
 689   0.0000       4.834684       131.5584 
 690   0.0000       4.868605       132.4815 
 691   0.0000       4.887631       132.9992 
 692   0.0000       4.897656       133.2720 
 693   0.0000       4.899408       133.3197 
 694   0.0000       4.915133       133.7476 
 695   0.0000       4.932123       134.2099 
 696   0.0000       4.953167       134.7825 
 697   0.0000       4.961971       135.0221 
 698   0.0000       4.968862       135.2096 
 699   0.0000       4.980114       135.5158 
 700   0.0000       4.987130       135.7067 
 701   0.0000       5.007252       136.2542 
 702   0.0000       5.013868       136.4343 
 703   0.0000       5.028210       136.8245 
 704   0.0000       5.035475       137.0222 
 705   0.0000       5.044596       137.2704 
 706   0.0000       5.091387       138.5437 
 707   0.0000       5.223666       142.1432 
 708   0.0000       5.300752       144.2408 
 709   0.0000       5.308722       144.4577 
 710   0.0000       5.314689       144.6201 
 711   0.0000       5.316559       144.6709 
 712   0.0000       5.323563       144.8615 
 713   0.0000       5.335152       145.1769 
 714   0.0000       5.338068       145.2562 
 715   0.0000       5.343721       145.4100 
 716   0.0000       5.384264       146.5133 
 717   0.0000       5.385046       146.5346 
 718   0.0000       5.398578       146.9028 
 719   0.0000       5.403163       147.0275 
 720   0.0000       5.410191       147.2188 
 721   0.0000       5.420584       147.5016 
 722   0.0000       5.432884       147.8363 
 723   0.0000       5.443371       148.1216 
 724   0.0000       5.448565       148.2630 
 725   0.0000       5.459747       148.5673 
 726   0.0000       5.468997       148.8190 
 727   0.0000       5.483299       149.2082 
 728   0.0000       5.512972       150.0156 
 729   0.0000       5.523404       150.2995 
 730   0.0000       5.591663       152.1569 
 731   0.0000       5.647961       153.6888 
 732   0.0000       5.651124       153.7749 
 733   0.0000       5.779355       157.2642 
 734   0.0000       5.787213       157.4781 
 735   0.0000       5.794427       157.6744 
 736   0.0000       5.820755       158.3908 
 737   0.0000       6.012886       163.6189 
 738   0.0000       6.024276       163.9289 
 739   0.0000       6.028128       164.0337 
 740   0.0000       6.031943       164.1375 
 741   0.0000       6.036452       164.2602 
 742   0.0000       6.046219       164.5260 
 743   0.0000       6.048163       164.5789 
 744   0.0000       6.064347       165.0193 
 745   0.0000       6.315087       171.8423 
 746   0.0000       6.533870       177.7956 
 747   0.0000       6.651385       180.9934 
 748   0.0000       6.658646       181.1910 
 749   0.0000       8.406063       228.7406 
 750   0.0000       8.426960       229.3093 
 751   0.0000       8.467114       230.4019 
 752   0.0000       8.536439       232.2883 
 753   0.0000       8.543687       232.4855 
 754   0.0000      11.313514       307.8564 
 755   0.0000      11.351019       308.8769 
 756   0.0000      11.509461       313.1884 
 757   0.0000      21.361908       581.2871 
 758   0.0000      23.523925       640.1186 
 759   0.0000      23.570438       641.3842 
 760   0.0000      23.723475       645.5486 
 761   0.0000      23.725750       645.6105 
 762   0.0000      23.752373       646.3349 
 763   0.0000      23.772182       646.8740 
 764   0.0000      23.811888       647.9544 
 765   0.0000      24.094749       655.6515 
 766   0.0000      24.104512       655.9171 
 767   0.0000      24.133465       656.7050 
 768   0.0000      24.137092       656.8037 
 769   0.0000      24.370287       663.1492 
 770   0.0000      26.809435       729.5218 
 771   0.0000      72.974164      1985.7280 

                    ********************************
                    * MULLIKEN POPULATION ANALYSIS *
                    ********************************

-----------------------
MULLIKEN ATOMIC CHARGES
-----------------------
   0 Zr:   -0.754163
   1 C :   -0.112026
   2 C :   -0.142960
   3 C :   -0.183140
   4 H :    0.385567
   5 C :   -0.236738
   6 H :    0.308266
   7 C :   -0.376673
   8 H :    0.296928
   9 H :    0.333626
  10 C :   -0.286862
  11 C :   -0.176671
  12 C :   -0.177636
  13 H :    0.321938
  14 C :   -0.217660
  15 H :    0.318519
  16 C :   -0.265545
  17 H :    0.413978
  18 H :    0.271097
  19 Cl:   -0.467694
  20 C :   -0.190321
  21 C :   -0.246473
  22 H :    0.317584
  23 H :   -0.055613
  24 H :    0.272138
  25 H :    0.308663
  26 H :    0.341872
Sum of atomic charges:   -0.0000000

--------------------------------
MULLIKEN REDUCED ORBITAL CHARGES
--------------------------------
  0 Zrs       :     2.521105  s :     2.521105
      pz      :     2.541340  p :     7.677394
      px      :     2.634891
      py      :     2.501163
      dz2     :     0.621755  d :     2.244363
      dxz     :     0.440661
      dyz     :     0.379859
      dx2y2   :     0.410274
      dxy     :     0.391815
      f0      :     0.063023  f :     0.270113
      f+1     :     0.016281
      f-1     :     0.022752
      f+2     :     0.038468
      f-2     :     0.038898
      f+3     :     0.048496
      f-3     :     0.042196
      g0      :     0.002469  g :     0.041189
      g+1     :     0.004777
      g-1     :     0.004081
      g+2     :     0.003504
      g-2     :     0.003430
      g+3     :     0.005551
      g-3     :     0.005530
      g+4     :     0.005050
      g-4     :     0.006797
  1 C s       :     3.387293  s :     3.387293
      pz      :     1.024135  p :     2.740814
      px      :     0.878401
      py      :     0.838278
      dz2     :    -0.002068  d :    -0.023653
      dxz     :    -0.024213
      dyz     :    -0.024750
      dx2y2   :     0.005362
      dxy     :     0.022016
      f0      :     0.001064  f :     0.007572
      f+1     :     0.000454
      f-1     :     0.002149
      f+2     :     0.001009
      f-2     :     0.001337
      f+3     :     0.000809
      f-3     :     0.000750
  2 C s       :     3.278292  s :     3.278292
      pz      :     0.877536  p :     2.884343
      px      :     0.946290
      py      :     1.060516
      dz2     :     0.003901  d :    -0.026975
      dxz     :     0.018074
      dyz     :    -0.032716
      dx2y2   :    -0.039996
      dxy     :     0.023763
      f0      :     0.001129  f :     0.007300
      f+1     :     0.001003
      f-1     :     0.001918
      f+2     :     0.000774
      f-2     :     0.000917
      f+3     :     0.000802
      f-3     :     0.000758
  3 C s       :     3.415115  s :     3.415115
      pz      :     0.799873  p :     2.759357
      px      :     0.979994
      py      :     0.979491
      dz2     :    -0.006306  d :     0.001466
      dxz     :     0.026761
      dyz     :    -0.004361
      dx2y2   :    -0.008969
      dxy     :    -0.005659
      f0      :     0.001322  f :     0.007202
      f+1     :     0.000752
      f-1     :     0.001732
      f+2     :     0.001111
      f-2     :     0.000920
      f+3     :     0.000680
      f-3     :     0.000685
  4 H s       :     0.555691  s :     0.555691
      pz      :     0.010074  p :     0.056147
      px      :     0.012973
      py      :     0.033100
      dz2     :     0.000390  d :     0.002595
      dxz     :     0.000135
      dyz     :     0.000726
      dx2y2   :     0.000572
      dxy     :     0.000772
  5 C s       :     3.364459  s :     3.364459
      pz      :     0.940135  p :     2.869880
      px      :     0.968040
      py      :     0.961705
      dz2     :    -0.022494  d :    -0.004885
      dxz     :    -0.004548
      dyz     :    -0.015133
      dx2y2   :     0.013391
      dxy     :     0.023900
      f0      :     0.001545  f :     0.007284
      f+1     :     0.001265
      f-1     :     0.001341
      f+2     :     0.001047
      f-2     :     0.000289
      f+3     :     0.001120
      f-3     :     0.000678
  6 H s       :     0.633519  s :     0.633519
      pz      :    -0.002706  p :     0.055716
      px      :     0.041463
      py      :     0.016959
      dz2     :     0.000284  d :     0.002499
      dxz     :     0.000104
      dyz     :     0.000786
      dx2y2   :     0.000465
      dxy     :     0.000860
  7 C s       :     3.586645  s :     3.586645
      pz      :     0.975858  p :     2.786924
      px      :     0.860140
      py      :     0.950927
      dz2     :    -0.026005  d :    -0.004384
      dxz     :    -0.003415
      dyz     :    -0.000147
      dx2y2   :     0.011182
      dxy     :     0.014001
      f0      :     0.001676  f :     0.007487
      f+1     :     0.001176
      f-1     :     0.001210
      f+2     :     0.001061
      f-2     :     0.000515
      f+3     :     0.000854
      f-3     :     0.000995
  8 H s       :     0.637080  s :     0.637080
      pz      :     0.023799  p :     0.063447
      px      :     0.030041
      py      :     0.009607
      dz2     :     0.000777  d :     0.002545
      dxz     :     0.000533
      dyz     :     0.000556
      dx2y2   :     0.000312
      dxy     :     0.000367
  9 H s       :     0.607053  s :     0.607053
      pz      :     0.020584  p :     0.056809
      px      :     0.021358
      py      :     0.014868
      dz2     :     0.000810  d :     0.002512
      dxz     :     0.000623
      dyz     :     0.000541
      dx2y2   :     0.000260
      dxy     :     0.000278
 10 C s       :     3.350063  s :     3.350063
      pz      :     0.890835  p :     2.943260
      px      :     0.881309
      py      :     1.171116
      dz2     :    -0.006897  d :    -0.013762
      dxz     :     0.007161
      dyz     :    -0.027088
      dx2y2   :     0.016895
      dxy     :    -0.003833
      f0      :     0.001049  f :     0.007300
      f+1     :     0.001582
      f-1     :     0.001583
      f+2     :     0.000605
      f-2     :     0.000829
      f+3     :     0.000766
      f-3     :     0.000886
 11 C s       :     3.418124  s :     3.418124
      pz      :     1.014638  p :     2.767450
      px      :     0.889358
      py      :     0.863454
      dz2     :    -0.011665  d :    -0.016464
      dxz     :    -0.005016
      dyz     :    -0.034858
      dx2y2   :     0.034776
      dxy     :     0.000299
      f0      :     0.001137  f :     0.007561
      f+1     :     0.001109
      f-1     :     0.001420
      f+2     :     0.001308
      f-2     :     0.001016
      f+3     :     0.000732
      f-3     :     0.000840
 12 C s       :     3.319624  s :     3.319624
      pz      :     0.925742  p :     2.850344
      px      :     0.864501
      py      :     1.060100
      dz2     :    -0.005039  d :     0.000377
      dxz     :     0.005371
      dyz     :    -0.006775
      dx2y2   :     0.009447
      dxy     :    -0.002626
      f0      :     0.001386  f :     0.007290
      f+1     :     0.001466
      f-1     :     0.001427
      f+2     :     0.000168
      f-2     :     0.001012
      f+3     :     0.000638
      f-3     :     0.001193
 13 H s       :     0.622979  s :     0.622979
      pz      :     0.020708  p :     0.052613
      px      :     0.022818
      py      :     0.009087
      dz2     :     0.000657  d :     0.002471
      dxz     :     0.000880
      dyz     :     0.000851
      dx2y2   :     0.000042
      dxy     :     0.000040
 14 C s       :     3.390460  s :     3.390460
      pz      :     0.786938  p :     2.785549
      px      :     1.057115
      py      :     0.941496
      dz2     :    -0.015366  d :     0.034430
      dxz     :    -0.022237
      dyz     :     0.047105
      dx2y2   :     0.044865
      dxy     :    -0.019937
      f0      :     0.001472  f :     0.007222
      f+1     :     0.000864
      f-1     :     0.001319
      f+2     :     0.001246
      f-2     :     0.001031
      f+3     :     0.000649
      f-3     :     0.000641
 15 H s       :     0.614691  s :     0.614691
      pz      :     0.021022  p :     0.064246
      px      :     0.007020
      py      :     0.036204
      dz2     :     0.000756  d :     0.002544
      dxz     :     0.000400
      dyz     :     0.000597
      dx2y2   :     0.000451
      dxy     :     0.000338
 16 C s       :     3.550718  s :     3.550718
      pz      :     0.961629  p :     2.743855
      px      :     0.854294
      py      :     0.927932
      dz2     :    -0.044905  d :    -0.036460
      dxz     :    -0.013436
      dyz     :     0.013112
      dx2y2   :     0.011589
      dxy     :    -0.002820
      f0      :     0.001672  f :     0.007433
      f+1     :     0.001089
      f-1     :     0.001119
      f+2     :     0.000556
      f-2     :     0.001222
      f+3     :     0.000840
      f-3     :     0.000936
 17 H s       :     0.550990  s :     0.550990
      pz      :    -0.005968  p :     0.032500
      px      :     0.038945
      py      :    -0.000477
      dz2     :     0.000236  d :     0.002532
      dxz     :     0.000368
      dyz     :     0.000547
      dx2y2   :     0.000844
      dxy     :     0.000536
 18 H s       :     0.658219  s :     0.658219
      pz      :     0.024563  p :     0.068155
      px      :     0.026040
      py      :     0.017551
      dz2     :     0.000815  d :     0.002529
      dxz     :     0.000741
      dyz     :     0.000541
      dx2y2   :     0.000219
      dxy     :     0.000212
 19 Cls       :     5.932093  s :     5.932093
      pz      :     3.781494  p :    11.525437
      px      :     3.928361
      py      :     3.815581
      dz2     :     0.002298  d :     0.009301
      dxz     :     0.002003
      dyz     :     0.001627
      dx2y2   :     0.002158
      dxy     :     0.001215
      f0      :     0.000103  f :     0.000864
      f+1     :     0.000060
      f-1     :     0.000266
      f+2     :     0.000178
      f-2     :     0.000126
      f+3     :     0.000063
      f-3     :     0.000068
 20 C s       :     3.272283  s :     3.272283
      pz      :     1.014962  p :     2.909544
      px      :     0.911732
      py      :     0.982851
      dz2     :     0.003175  d :     0.001095
      dxz     :     0.015317
      dyz     :    -0.022414
      dx2y2   :     0.005885
      dxy     :    -0.000869
      f0      :     0.001800  f :     0.007399
      f+1     :     0.001215
      f-1     :     0.000978
      f+2     :     0.001437
      f-2     :     0.001276
      f+3     :     0.000391
      f-3     :     0.000302
 21 C s       :     3.377192  s :     3.377192
      pz      :     0.937564  p :     2.853910
      px      :     0.975992
      py      :     0.940353
      dz2     :    -0.012136  d :     0.007774
      dxz     :     0.016171
      dyz     :     0.006011
      dx2y2   :     0.000931
      dxy     :    -0.003202
      f0      :     0.002023  f :     0.007596
      f+1     :     0.001319
      f-1     :     0.001080
      f+2     :     0.001374
      f-2     :     0.001220
      f+3     :     0.000306
      f-3     :     0.000274
 22 H s       :     0.644123  s :     0.644123
      pz      :     0.026943  p :     0.036834
      px      :     0.000771
      py      :     0.009121
      dz2     :     0.000362  d :     0.001458
      dxz     :     0.000487
      dyz     :     0.000360
      dx2y2   :     0.000107
      dxy     :     0.000142
 23 H s       :     1.150701  s :     1.150701
      pz      :    -0.009053  p :    -0.096218
      px      :    -0.034777
      py      :    -0.052388
      dz2     :     0.000750  d :     0.001130
      dxz     :     0.000184
      dyz     :     0.000112
      dx2y2   :     0.000046
      dxy     :     0.000037
 24 H s       :     0.686785  s :     0.686785
      pz      :     0.012735  p :     0.039677
      px      :     0.006477
      py      :     0.020465
      dz2     :     0.000471  d :     0.001400
      dxz     :     0.000434
[...]
      dxz     :     0.000304
      dyz     :     0.000540
      dx2y2   :     0.000821
      dxy     :     0.000461


                     *******************************
                     * LOEWDIN POPULATION ANALYSIS *
                     *******************************

----------------------
LOEWDIN ATOMIC CHARGES
----------------------
   0 Zr:    0.482282
   1 C :   -0.062831
   2 C :   -0.057037
   3 C :   -0.052817
   4 H :    0.005153
   5 C :   -0.047909
   6 H :    0.011661
   7 C :   -0.085032
   8 H :    0.009887
   9 H :   -0.011629
  10 C :   -0.058045
  11 C :   -0.058785
  12 C :   -0.046333
  13 H :    0.003206
  14 C :   -0.055537
  15 H :    0.010478
  16 C :   -0.077439
  17 H :    0.008402
  18 H :   -0.008251
  19 Cl:    0.153646
  20 C :    0.046091
  21 C :    0.072718
  22 H :   -0.107236
  23 H :   -0.005122
  24 H :   -0.076599
  25 H :    0.001961
  26 H :    0.005116

-------------------------------
LOEWDIN REDUCED ORBITAL CHARGES
-------------------------------
  0 Zrs       :     1.774035  s :     1.774035
      pz      :     2.131235  p :     6.279065
      px      :     2.052534
      py      :     2.095296
      dz2     :     0.721364  d :     2.602737
      dxz     :     0.478600
      dyz     :     0.474029
      dx2y2   :     0.470697
      dxy     :     0.458047
      f0      :     0.136814  f :     0.642369
      f+1     :     0.044124
      f-1     :     0.070162
      f+2     :     0.099433
      f-2     :     0.092127
      f+3     :     0.105224
      f-3     :     0.094485
      g0      :     0.021669  g :     0.219512
      g+1     :     0.022998
      g-1     :     0.020509
      g+2     :     0.020592
      g-2     :     0.018903
      g+3     :     0.028187
      g-3     :     0.027925
      g+4     :     0.026410
      g-4     :     0.032319
  1 C s       :     2.634876  s :     2.634876
      pz      :     0.925934  p :     2.574941
      px      :     0.742527
      py      :     0.906479
      dz2     :     0.217006  d :     0.804294
      dxz     :     0.096476
      dyz     :     0.173504
      dx2y2   :     0.160553
      dxy     :     0.156756
      f0      :     0.006110  f :     0.048721
      f+1     :     0.001604
      f-1     :     0.015543
      f+2     :     0.007885
      f-2     :     0.010502
      f+3     :     0.003182
      f-3     :     0.003896
  2 C s       :     2.626586  s :     2.626586
      pz      :     0.906892  p :     2.589796
      px      :     0.774569
      py      :     0.908335
      dz2     :     0.201626  d :     0.792711
      dxz     :     0.154612
      dyz     :     0.212403
      dx2y2   :     0.119190
      dxy     :     0.104881
      f0      :     0.008157  f :     0.047944
      f+1     :     0.005482
      f-1     :     0.014005
      f+2     :     0.005839
      f-2     :     0.006869
      f+3     :     0.003545
      f-3     :     0.004047
  3 C s       :     2.632607  s :     2.632607
      pz      :     0.911265  p :     2.604576
      px      :     0.775512
      py      :     0.917799
      dz2     :     0.208711  d :     0.768351
      dxz     :     0.153099
      dyz     :     0.201362
      dx2y2   :     0.125399
      dxy     :     0.079780
      f0      :     0.009465  f :     0.047282
      f+1     :     0.003493
      f-1     :     0.012714
      f+2     :     0.007870
      f-2     :     0.007465
      f+3     :     0.002577
      f-3     :     0.003698
  4 H s       :     0.694199  s :     0.694199
      pz      :     0.067970  p :     0.270402
      px      :     0.091438
      py      :     0.110994
      dz2     :     0.004133  d :     0.030246
      dxz     :     0.001344
      dyz     :     0.008781
      dx2y2   :     0.007828
      dxy     :     0.008160
  5 C s       :     2.627891  s :     2.627891
      pz      :     0.909498  p :     2.593891
      px      :     0.775180
      py      :     0.909213
      dz2     :     0.158343  d :     0.778109
      dxz     :     0.116341
      dyz     :     0.256540
      dx2y2   :     0.111500
      dxy     :     0.135385
      f0      :     0.011701  f :     0.048018
      f+1     :     0.008155
      f-1     :     0.009378
      f+2     :     0.006529
      f-2     :     0.002029
      f+3     :     0.005694
      f-3     :     0.004531
  6 H s       :     0.697725  s :     0.697725
      pz      :     0.064249  p :     0.260653
      px      :     0.081847
      py      :     0.114557
      dz2     :     0.003598  d :     0.029961
      dxz     :     0.000909
      dyz     :     0.008545
      dx2y2   :     0.008427
      dxy     :     0.008483
  7 C s       :     2.635431  s :     2.635431
      pz      :     0.924231  p :     2.580969
      px      :     0.738484
      py      :     0.918254
      dz2     :     0.169388  d :     0.819762
      dxz     :     0.118971
      dyz     :     0.247056
      dx2y2   :     0.135894
      dxy     :     0.148453
      f0      :     0.012390  f :     0.048870
      f+1     :     0.006953
      f-1     :     0.008675
      f+2     :     0.007168
      f-2     :     0.003489
      f+3     :     0.004638
      f-3     :     0.005556
  8 H s       :     0.696683  s :     0.696683
      pz      :     0.095547  p :     0.263409
      px      :     0.085242
      py      :     0.082621
      dz2     :     0.008390  d :     0.030020
      dxz     :     0.005720
      dyz     :     0.008872
      dx2y2   :     0.003370
      dxy     :     0.003667
  9 H s       :     0.693841  s :     0.693841
      pz      :     0.104800  p :     0.287649
      px      :     0.097137
      py      :     0.085713
      dz2     :     0.009419  d :     0.030138
      dxz     :     0.006012
      dyz     :     0.009180
      dx2y2   :     0.002823
      dxy     :     0.002704
 10 C s       :     2.626905  s :     2.626905
      pz      :     0.907519  p :     2.591447
      px      :     0.832655
      py      :     0.851273
      dz2     :     0.191245  d :     0.791759
      dxz     :     0.176736
      dyz     :     0.197495
      dx2y2   :     0.103697
      dxy     :     0.122586
      f0      :     0.007781  f :     0.047934
      f+1     :     0.010180
      f-1     :     0.011037
      f+2     :     0.004700
      f-2     :     0.005782
      f+3     :     0.004499
      f-3     :     0.003955
 11 C s       :     2.634566  s :     2.634566
      pz      :     0.926415  p :     2.574185
      px      :     0.801381
      py      :     0.846389
      dz2     :     0.211133  d :     0.801327
      dxz     :     0.134019
      dyz     :     0.143521
      dx2y2   :     0.154704
      dxy     :     0.157950
      f0      :     0.006750  f :     0.048706
      f+1     :     0.006830
      f-1     :     0.009826
      f+2     :     0.010208
      f-2     :     0.007789
      f+3     :     0.004175
      f-3     :     0.003129
 12 C s       :     2.627995  s :     2.627995
      pz      :     0.909704  p :     2.590238
      px      :     0.828263
      py      :     0.852271
      dz2     :     0.155958  d :     0.779966
      dxz     :     0.173847
      dyz     :     0.211254
      dx2y2   :     0.121532
      dxy     :     0.117375
      f0      :     0.010772  f :     0.048134
      f+1     :     0.009878
      f-1     :     0.009623
      f+2     :     0.001088
      f-2     :     0.006274
      f+3     :     0.004601
      f-3     :     0.005898
 13 H s       :     0.699086  s :     0.699086
      pz      :     0.118834  p :     0.267790
      px      :     0.078890
      py      :     0.070065
      dz2     :     0.012138  d :     0.029918
      dxz     :     0.008641
      dyz     :     0.008638
      dx2y2   :     0.000232
      dxy     :     0.000270
 14 C s       :     2.631325  s :     2.631325
      pz      :     0.909552  p :     2.600873
      px      :     0.817154
      py      :     0.874168
      dz2     :     0.218957  d :     0.776007
      dxz     :     0.163514
      dyz     :     0.182540
      dx2y2   :     0.089139
      dxy     :     0.121857
      f0      :     0.010237  f :     0.047331
      f+1     :     0.005387
      f-1     :     0.008713
      f+2     :     0.009436
      f-2     :     0.007970
      f+3     :     0.003560
      f-3     :     0.002028
 15 H s       :     0.696439  s :     0.696439
      pz      :     0.090961  p :     0.263110
      px      :     0.089417
      py      :     0.082733
      dz2     :     0.007688  d :     0.029973
      dxz     :     0.006542
      dyz     :     0.007312
      dx2y2   :     0.004243
      dxy     :     0.004189
 16 C s       :     2.634579  s :     2.634579
      pz      :     0.922813  p :     2.582243
      px      :     0.798313
      py      :     0.861116
      dz2     :     0.175858  d :     0.811891
      dxz     :     0.154837
      dyz     :     0.191574
      dx2y2   :     0.149726
      dxy     :     0.139895
      f0      :     0.012095  f :     0.048726
      f+1     :     0.006876
      f-1     :     0.007748
      f+2     :     0.004145
      f-2     :     0.008255
      f+3     :     0.005009
      f-3     :     0.004599
 17 H s       :     0.695437  s :     0.695437
      pz      :     0.062933  p :     0.266094
      px      :     0.094430
      py      :     0.108731
      dz2     :     0.003357  d :     0.030068
      dxz     :     0.003620
      dyz     :     0.005535
      dx2y2   :     0.008975
      dxy     :     0.008581
 18 H s       :     0.694249  s :     0.694249
      pz      :     0.108042  p :     0.283906
      px      :     0.082002
      py      :     0.093863
      dz2     :     0.010039  d :     0.030095
      dxz     :     0.007252
      dyz     :     0.008489
      dx2y2   :     0.002135
      dxy     :     0.002180
 19 Cls       :     5.592313  s :     5.592313
      pz      :     3.677073  p :    11.082376
      px      :     3.727682
      py      :     3.677621
      dz2     :     0.040485  d :     0.170367
      dxz     :     0.025716
      dyz     :     0.045126
      dx2y2   :     0.022156
      dxy     :     0.036884
      f0      :     0.000185  f :     0.001299
      f+1     :     0.000075
      f-1     :     0.000344
      f+2     :     0.000257
      f-2     :     0.000231
      f+3     :     0.000104
      f-3     :     0.000103
 20 C s       :     2.789950  s :     2.789950
      pz      :     1.011908  p :     2.716548
      px      :     0.879472
      py      :     0.825168
      dz2     :     0.131178  d :     0.413854
      dxz     :     0.114846
      dyz     :     0.084096
      dx2y2   :     0.038607
      dxy     :     0.045128
      f0      :     0.005009  f :     0.033557
      f+1     :     0.010671
      f-1     :     0.004547
      f+2     :     0.005124
      f-2     :     0.006091
      f+3     :     0.000994
      f-3     :     0.001121
 21 C s       :     2.787266  s :     2.787266
      pz      :     1.008350  p :     2.717505
      px      :     0.906519
      py      :     0.802637
      dz2     :     0.106809  d :     0.388550
      dxz     :     0.096097
      dyz     :     0.070534
      dx2y2   :     0.073135
      dxy     :     0.041974
      f0      :     0.005042  f :     0.033961
      f+1     :     0.011215
      f-1     :     0.004465
      f+2     :     0.005450
      f-2     :     0.005629
      f+3     :     0.000967
      f-3     :     0.001193
 22 H s       :     0.720968  s :     0.720968
      pz      :     0.158400  p :     0.356394
      px      :     0.102820
      py      :     0.095174
      dz2     :     0.008240  d :     0.029874
      dxz     :     0.008922
      dyz     :     0.006907
      dx2y2   :     0.002852
      dxy     :     0.002953
 23 H s       :     0.763127  s :     0.763127
      pz      :     0.085862  p :     0.234683
      px      :     0.072733
      py      :     0.076088
      dz2     :     0.005164  d :     0.007313
      dxz     :     0.001075
      dyz     :     0.000662
      dx2y2   :     0.000240
      dxy     :     0.000172
 24 H s       :     0.731452  s :     0.731452
      pz      :     0.120761  p :     0.315583
      px      :     0.097655
      py      :     0.097167
      dz2     :     0.009612  d :     0.029564
      dxz     :     0.009078
      dyz     :     0.005919
      dx2y2   :     0.002648
      dxy     :     0.002308
 25 H s       :     0.700243  s :     0.700243
      pz      :     0.119495  p :     0.267901
      px      :     0.087271
      py      :     0.061134
      dz2     :     0.012245  d :     0.029894
      dxz     :     0.008544
      dyz     :     0.008888
      dx2y2   :     0.000135
      dxy     :     0.000082
 26 H s       :     0.694718  s :     0.694718
      pz      :     0.071226  p :     0.269937
      px      :     0.101185
      py      :     0.097526
      dz2     :     0.004636  d :     0.030230
      dxz     :     0.004186
      dyz     :     0.006480
      dx2y2   :     0.007560
      dxy     :     0.007368


                      *****************************
                      * MAYER POPULATION ANALYSIS *
                      *****************************

  NA   - Mulliken gross atomic population
  ZA   - Total nuclear charge
  QA   - Mulliken gross atomic charge
  VA   - Mayer's total valence
  BVA  - Mayer's bonded valence
  FA   - Mayer's free valence

  ATOM       NA         ZA         QA         VA         BVA        FA
  0 Zr    12.7542    12.0000    -0.7542     6.5824     6.5824    -0.0000
  1 C      6.1120     6.0000    -0.1120     3.0371     3.0371    -0.0000
  2 C      6.1430     6.0000    -0.1430     3.0958     3.0958     0.0000
  3 C      6.1831     6.0000    -0.1831     3.1105     3.1105    -0.0000
  4 H      0.6144     1.0000     0.3856     0.8585     0.8585     0.0000
  5 C      6.2367     6.0000    -0.2367     3.3515     3.3515     0.0000
  6 H      0.6917     1.0000     0.3083     0.9566     0.9566    -0.0000
  7 C      6.3767     6.0000    -0.3767     3.3472     3.3472     0.0000
  8 H      0.7031     1.0000     0.2969     0.9593     0.9593     0.0000
  9 H      0.6664     1.0000     0.3336     0.8868     0.8868     0.0000
 10 C      6.2869     6.0000    -0.2869     3.3254     3.3254    -0.0000
 11 C      6.1767     6.0000    -0.1767     3.1889     3.1889     0.0000
 12 C      6.1776     6.0000    -0.1776     3.2309     3.2309     0.0000
 13 H      0.6781     1.0000     0.3219     0.8693     0.8693     0.0000
 14 C      6.2177     6.0000    -0.2177     3.0698     3.0698    -0.0000
 15 H      0.6815     1.0000     0.3185     0.9496     0.9496     0.0000
 16 C      6.2655     6.0000    -0.2655     3.2543     3.2543    -0.0000
 17 H      0.5860     1.0000     0.4140     0.8283     0.8283    -0.0000
 18 H      0.7289     1.0000     0.2711     0.9827     0.9827    -0.0000
 19 Cl    17.4677    17.0000    -0.4677     0.8728     0.8728     0.0000
 20 C      6.1903     6.0000    -0.1903     3.7072     3.7072    -0.0000
 21 C      6.2465     6.0000    -0.2465     3.6638     3.6638    -0.0000
 22 H      0.6824     1.0000     0.3176     0.8864     0.8864     0.0000
 23 H      1.0556     1.0000    -0.0556     0.6718     0.6718    -0.0000
 24 H      0.7279     1.0000     0.2721     0.9028     0.9028    -0.0000
 25 H      0.6913     1.0000     0.3087     0.9054     0.9054     0.0000
 26 H      0.6581     1.0000     0.3419     0.9244     0.9244    -0.0000

  Mayer bond orders larger than 0.100000
B(  0-Zr,  1-C ) :   0.2431 B(  0-Zr,  2-C ) :   0.3798 B(  0-Zr,  3-C ) :   0.4931 
B(  0-Zr,  5-C ) :   0.5136 B(  0-Zr,  7-C ) :   0.3635 B(  0-Zr, 10-C ) :   0.4989 
B(  0-Zr, 11-C ) :   0.2821 B(  0-Zr, 12-C ) :   0.4359 B(  0-Zr, 14-C ) :   0.5093 
B(  0-Zr, 16-C ) :   0.2601 B(  0-Zr, 19-Cl) :   0.8580 B(  0-Zr, 20-C ) :   0.3124 
B(  0-Zr, 21-C ) :   0.1124 B(  0-Zr, 23-H ) :   1.0272 B(  1-C ,  2-C ) :   1.1735 
B(  1-C ,  3-C ) :   1.0519 B(  1-C , 23-H ) :  -0.1045 B(  1-C , 25-H ) :   0.9356 
B(  2-C ,  4-H ) :   0.8403 B(  2-C ,  5-C ) :   1.0426 B(  2-C ,  7-C ) :  -0.1210 
B(  3-C ,  6-H ) :   0.9362 B(  3-C ,  7-C ) :   1.0623 B(  5-C ,  7-C ) :   1.0806 
B(  5-C ,  8-H ) :   0.9517 B(  7-C ,  9-H ) :   0.9637 B(  7-C , 19-Cl) :   0.1514 
B( 10-C , 11-C ) :   1.2028 B( 10-C , 12-C ) :   1.0535 B( 10-C , 26-H ) :   0.8882 
B( 11-C , 13-H ) :   0.9323 B( 11-C , 14-C ) :   1.0672 B( 12-C , 15-H ) :   0.9238 
B( 12-C , 16-C ) :   1.0753 B( 14-C , 16-C ) :   1.0949 B( 14-C , 17-H ) :   0.8340 
B( 14-C , 19-Cl) :  -0.1329 B( 16-C , 18-H ) :   1.0205 B( 20-C , 21-C ) :   2.6500 
B( 20-C , 22-H ) :   0.8626 B( 21-C , 24-H ) :   1.0076 

-------
TIMINGS
-------

Total SCF time: 0 days 0 hours 12 min 38 sec 

Total time                  ....     758.539 sec
Sum of individual times     ....     757.330 sec  ( 99.8%)

Fock matrix formation       ....     750.159 sec  ( 98.9%)
  XC integration            ....      12.794 sec  (  1.7% of F)
    Basis function eval.    ....       1.092 sec  (  8.5% of XC)
    Density eval.           ....       4.276 sec  ( 33.4% of XC)
    XC-Functional eval.     ....       0.102 sec  (  0.8% of XC)
    XC-Potential eval.      ....       6.494 sec  ( 50.8% of XC)
Diagonalization             ....       2.115 sec  (  0.3%)
Density matrix formation    ....       0.078 sec  (  0.0%)
Population analysis         ....       0.128 sec  (  0.0%)
Initial guess               ....       2.919 sec  (  0.4%)
Orbital Transformation      ....       0.000 sec  (  0.0%)
Orbital Orthonormalization  ....       0.000 sec  (  0.0%)
DIIS solution               ....       1.229 sec  (  0.2%)
Grid generation             ....       0.703 sec  (  0.1%)

-------------------------   --------------------
FINAL SINGLE POINT ENERGY      -972.300476541586
-------------------------   --------------------


                            ***************************************
                            *     ORCA property calculations      *
                            ***************************************

                                    ---------------------
                                    Active property flags
                                    ---------------------
   (+) Dipole Moment


------------------------------------------------------------------------------
                       ORCA ELECTRIC PROPERTIES CALCULATION
------------------------------------------------------------------------------

Dipole Moment Calculation                       ... on
Quadrupole Moment Calculation                   ... off
Polarizability Calculation                      ... off
GBWName                                         ... TMB01_T1.gbw
Electron density file                           ... TMB01_T1.scfp
The origin for moment calculation is the CENTER OF MASS  = (-0.006447,  0.038225 -0.041973)

-------------
DIPOLE MOMENT
-------------
                                X             Y             Z
Electronic contribution:      0.47912       2.13463       2.54119
Nuclear contribution   :     -0.31433      -2.93943      -1.59819
                        -----------------------------------------
Total Dipole Moment    :      0.16480      -0.80480       0.94300
                        -----------------------------------------
Magnitude (a.u.)       :      1.25065
Magnitude (Debye)      :      3.17889



--------------------
Rotational spectrum 
--------------------
 
Rotational constants in cm-1:     0.021527     0.019953     0.016159 
Rotational constants in MHz :   645.375909   598.178243   484.447118 

 Dipole components along the rotational axes: 
x,y,z [a.u.] :     0.156524    -0.854263     0.899917 
x,y,z [Debye]:     0.397853    -2.171364     2.287407 

 

Timings for individual modules:

Sum of individual times         ...      762.504 sec (=  12.708 min)
GTO integral calculation        ...        3.587 sec (=   0.060 min)   0.5 %
SCF iterations                  ...      758.917 sec (=  12.649 min)  99.5 %
                             ****ORCA TERMINATED NORMALLY****
TOTAL RUN TIME: 0 days 0 hours 12 minutes 43 seconds 104 msec
