
                                 *****************
                                 * O   R   C   A *
                                 *****************

           --- An Ab Initio, DFT and Semiempirical electronic structure package ---

                  #######################################################
                  #                        -***-                        #
                  #          Department of theory and spectroscopy      #
                  #               Directorship: Frank Neese             #
                  #        Max Planck Institute fuer Kohlenforschung    #
                  #                Kaiser Wilhelm Platz 1               #
                  #                 D-45470 Muelheim/Ruhr               #
                  #                      Germany                        #
                  #                                                     #
                  #                  All rights reserved                #
                  #                        -***-                        #
                  #######################################################


                         Program Version 4.2.0 -  RELEASE  -


 With contributions from (in alphabetic order):
   Daniel Aravena         : Magnetic Suceptibility
   Michael Atanasov       : Ab Initio Ligand Field Theory (pilot matlab implementation)
   Alexander A. Auer      : GIAO ZORA, VPT2
   Ute Becker             : Parallelization
   Giovanni Bistoni       : ED, misc. LED, open-shell LED, HFLED
   Martin Brehm           : Molecular dynamics
   Dmytro Bykov           : SCF Hessian
   Vijay G. Chilkuri      : MRCI spin determinant printing, contributions to CSF-ICE
   Dipayan Datta          : RHF DLPNO-CCSD density
   Achintya Kumar Dutta   : EOM-CC, STEOM-CC
   Dmitry Ganyushin       : Spin-Orbit,Spin-Spin,Magnetic field MRCI
   Miquel Garcia          : C-PCM Hessian, Gaussian charge scheme
   Yang Guo               : DLPNO-NEVPT2, CIM, IAO-localization
   Andreas Hansen         : Spin unrestricted coupled pair/coupled cluster methods
   Benjamin Helmich-Paris : CASSCF linear response (MC-RPA)
   Lee Huntington         : MR-EOM, pCC
   Robert Izsak           : Overlap fitted RIJCOSX, COSX-SCS-MP3, EOM
   Christian Kollmar      : KDIIS, OOCD, Brueckner-CCSD(T), CCSD density
   Simone Kossmann        : Meta GGA functionals, TD-DFT gradient, OOMP2, MP2 Hessian
   Martin Krupicka        : AUTO-CI
   Lucas Lang             : DCDCAS
   Dagmar Lenk            : GEPOL surface, SMD
   Dimitrios Liakos       : Extrapolation schemes; Compound Job, initial MDCI parallelization
   Dimitrios Manganas     : Further ROCIS development; embedding schemes
   Dimitrios Pantazis     : SARC Basis sets
   Taras Petrenko         : DFT Hessian,TD-DFT gradient, ASA, ECA, R-Raman, ABS, FL, XAS/XES, NRVS
   Peter Pinski           : DLPNO-MP2, DLPNO-MP2 Gradient
   Christoph Reimann      : Effective Core Potentials
   Marius Retegan         : Local ZFS, SOC
   Christoph Riplinger    : Optimizer, TS searches, QM/MM, DLPNO-CCSD(T), (RO)-DLPNO pert. Triples
   Tobias Risthaus        : Range-separated hybrids, TD-DFT gradient, RPA, STAB
   Michael Roemelt        : Original ROCIS implementation
   Masaaki Saitow         : Open-shell DLPNO-CCSD energy and density
   Barbara Sandhoefer     : DKH picture change effects
   Avijit Sen             : IP-ROCIS
   Kantharuban Sivalingam : CASSCF convergence, NEVPT2, FIC-MRCI
   Bernardo de Souza      : ESD, SOC TD-DFT
   Georgi Stoychev        : AutoAux, RI-MP2 NMR
   Willem Van den Heuvel  : Paramagnetic NMR
   Boris Wezisla          : Elementary symmetry handling
   Frank Wennmohs         : Technical directorship


 We gratefully acknowledge several colleagues who have allowed us to
 interface, adapt or use parts of their codes:
   Stefan Grimme, W. Hujo, H. Kruse,             : VdW corrections, initial TS optimization,
                  C. Bannwarth                     DFT functionals, gCP, sTDA/sTD-DF
   Ed Valeev, F. Pavosevic, A. Kumar             : LibInt (2-el integral package), F12 methods
   Garnet Chan, S. Sharma, J. Yang, R. Olivares  : DMRG
   Ulf Ekstrom                                   : XCFun DFT Library
   Mihaly Kallay                                 : mrcc  (arbitrary order and MRCC methods)
   Andreas Klamt, Michael Diedenhofen            : otool_cosmo (COSMO solvation model)
   Jiri Pittner, Ondrej Demel                    : Mk-CCSD
   Frank Weinhold                                : gennbo (NPA and NBO analysis)
   Christopher J. Cramer and Donald G. Truhlar   : smd solvation model
   Lars Goerigk                                  : TD-DFT with DH, B97 family of functionals
   V. Asgeirsson, H. Jonsson                     : NEB implementation
   FAccTs GmbH                                   : IRC, NEB, NEB-TS, Multilevel, MM, QM/MM, CI optimization
   S Lehtola, MJT Oliveira, MAL Marques          : LibXC Library


 Your calculation uses the libint2 library for the computation of 2-el integrals
 For citations please refer to: http://libint.valeyev.net

 Your ORCA version has been built with support for libXC version: 4.2.3
 For citations please refer to: https://tddft.org/programs/libxc/

 This ORCA versions uses:
   CBLAS   interface :  Fast vector & matrix operations
   LAPACKE interface :  Fast linear algebra routines
   SCALAPACK package :  Parallel linear algebra routines


Your calculation utilizes the DFT-NL dispersion correction.
Cite in your paper:
Vydrov, O. A.; Van Voorhis, T. J. Chem. Phys. 2010, 133, 244103
Hujo, W.; Grimme, S. J. Chem. Theory Comput. 2011, 7, 3866 
   

----- Orbital basis set information -----
Your calculation utilizes the basis: def2-TZVPPD
   F. Weigend and R. Ahlrichs, Phys. Chem. Chem. Phys. 7, 3297 (2005).
   D. Rappoport and F. Furche, J. Chem. Phys. 133 134105 (2010).

----- AuxJK basis set information -----
Your calculation utilizes the auxiliary basis: def2/JK
   H-Ba, Hf-Rn: F. Weigend, J. Comput. Chem. 29, 167 (2008).

cite the ECPs for Mo [Def2-ECP] as follows:
Ce-Yb(ecp-28): M. Dolg, H. Stoll, H.Preuss, J. Chem. Phys., 1989, 90, 1730-1734.
Y-Cd(ecp-28), Hf-Hg(ecp-46): D. Andrae,U. Haeussermann, M. Dolg, H. Stoll, H. Preuss, Theor. Chim. Acta, 1990, 77, 123-141.
In-Sb(ecp-28), Tl-Bi(ecp-46): B. Metz, H. Stoll, M. Dolg, J. Chem. Phys., 2000, 113, 2563-2569.
Te-Xe(ecp-28), Po-Rn(ecp-46): K. A. Peterson, D. Figgen, E. Goll, H. Stoll, M. Dolg, J. Chem. Phys., 2003, 119, 11113-11123.
Rb(ecp-28), Cs(ecp-46): T. Leininger, A. Nicklass, W. Kuechle, H. Stoll, M. Dolg, A. Bergner, Chem. Phys. Lett., 1996, 255, 274-280.
Sr(ecp-28), Ba(ecp-46): M. Kaupp, P. V. Schleyer, H. Stoll and H. Preuss, J. Chem. Phys., 1991, 94, 1360-1366.
La(ecp-46): M. Dolg, H. Stoll, A. Savin, H. Preuss, Theor. Chim. Acta, 1989, 75, 173-194.
Lu(ecp-28): X. Cao, M. Dolg, J. Chem. Phys., 2001, 115, 7348-7355.

ECP parameters for Mo [Def2-ECP] have been obtained from:
TURBOMOLE (7.0.2)

================================================================================
                                        WARNINGS
                       Please study these warnings very carefully!
================================================================================


INFO   : the flag for use of LIBINT has been found!

================================================================================
                                       INPUT FILE
================================================================================
NAME = TMB10_C1.in
|  1> #
|  2> # TMB10_C1 wB97M-V/Def2-TZVPPD
|  3> #
|  4> ! wb97m-v def2-tzvppd def2/jk grid4 nofinalgrid
|  5> 
|  6> *xyz 0 1
|  7> Mo       0.133298    0.019814    0.066207 
|  8> C       -1.075332   -1.355629   -0.909336 
|  9> C       -2.072844    2.216315    0.675821 
| 10> H       -2.495915    2.026095    1.680930 
| 11> H       -2.910608    2.260759   -0.044542 
| 12> H       -1.592380    3.211696    0.695601 
| 13> C        3.010907   -1.316541   -0.054396 
| 14> C        1.366704    2.705574   -0.540684 
| 15> N       -1.143030    1.200231    0.316847 
| 16> O        1.491405    1.304940   -0.439122 
| 17> O        1.615447   -1.247555   -0.063202 
| 18> H        3.367194   -2.025819   -0.825669 
| 19> H        3.385726   -1.672276    0.926079 
| 20> H        3.451946   -0.322838   -0.260301 
| 21> H        2.294131    3.111318   -0.982908 
| 22> H        1.229038    3.178184    0.450904 
| 23> H        0.520365    2.998986   -1.190253 
| 24> C       -0.462062   -1.067727    1.747714 
| 25> C       -1.245054   -1.851214    0.615257 
| 26> H        0.321659   -1.674412    2.211474 
| 27> H       -1.131198   -0.604236    2.478956 
| 28> H       -0.901967   -2.892720    0.638908 
| 29> H       -2.316994   -1.775934    0.836451 
| 30> C       -2.372818   -1.072037   -1.638655 
| 31> H       -2.166926   -0.639290   -2.630957 
| 32> H       -2.958163   -1.996472   -1.801781 
| 33> H       -3.005382   -0.361002   -1.085358 
| 34> H       -0.439666   -2.067375   -1.451890 
| 35> *
| 36> 
| 37> %maxcore 5000
| 38> 
| 39> %pal
| 40> nprocs = 24
| 41> end
| 42> 
| 43> 
| 44>                          ****END OF INPUT****
================================================================================

                       ****************************
                       * Single Point Calculation *
                       ****************************

---------------------------------
CARTESIAN COORDINATES (ANGSTROEM)
---------------------------------
  Mo     0.133298    0.019814    0.066207
  C     -1.075332   -1.355629   -0.909336
  C     -2.072844    2.216315    0.675821
  H     -2.495915    2.026095    1.680930
  H     -2.910608    2.260759   -0.044542
  H     -1.592380    3.211696    0.695601
  C      3.010907   -1.316541   -0.054396
  C      1.366704    2.705574   -0.540684
  N     -1.143030    1.200231    0.316847
  O      1.491405    1.304940   -0.439122
  O      1.615447   -1.247555   -0.063202
  H      3.367194   -2.025819   -0.825669
  H      3.385726   -1.672276    0.926079
  H      3.451946   -0.322838   -0.260301
  H      2.294131    3.111318   -0.982908
  H      1.229038    3.178184    0.450904
  H      0.520365    2.998986   -1.190253
  C     -0.462062   -1.067727    1.747714
  C     -1.245054   -1.851214    0.615257
  H      0.321659   -1.674412    2.211474
  H     -1.131198   -0.604236    2.478956
  H     -0.901967   -2.892720    0.638908
  H     -2.316994   -1.775934    0.836451
  C     -2.372818   -1.072037   -1.638655
  H     -2.166926   -0.639290   -2.630957
  H     -2.958163   -1.996472   -1.801781
  H     -3.005382   -0.361002   -1.085358
  H     -0.439666   -2.067375   -1.451890

----------------------------
CARTESIAN COORDINATES (A.U.)
----------------------------
  NO LB      ZA    FRAG     MASS         X           Y           Z
   0 Mo   14.0000*   0    95.940    0.251897    0.037443    0.125113
   1 C     6.0000    0    12.011   -2.032083   -2.561768   -1.718396
   2 C     6.0000    0    12.011   -3.917107    4.188228    1.277117
   3 H     1.0000    0     1.008   -4.716596    3.828765    3.176497
   4 H     1.0000    0     1.008   -5.500252    4.272215   -0.084172
   5 H     1.0000    0     1.008   -3.009162    6.069226    1.314495
   6 C     6.0000    0    12.011    5.689790   -2.487902   -0.102794
   7 C     6.0000    0    12.011    2.582696    5.112794   -1.021745
   8 N     7.0000    0    14.007   -2.160014    2.268108    0.598754
   9 O     8.0000    0    15.999    2.818347    2.465979   -0.829820
  10 O     8.0000    0    15.999    3.052752   -2.357537   -0.119434
  11 H     1.0000    0     1.008    6.363074   -3.828243   -1.560288
  12 H     1.0000    0     1.008    6.398095   -3.160144    1.750036
  13 H     1.0000    0     1.008    6.523233   -0.610075   -0.491898
  14 H     1.0000    0     1.008    4.335279    5.879539   -1.857427
  15 H     1.0000    0     1.008    2.322545    6.005897    0.852085
  16 H     1.0000    0     1.008    0.983347    5.667262   -2.249252
  17 C     6.0000    0    12.011   -0.873171   -2.017712    3.302701
  18 C     6.0000    0    12.011   -2.352811   -3.498287    1.162667
  19 H     1.0000    0     1.008    0.607847   -3.164180    4.179080
  20 H     1.0000    0     1.008   -2.137654   -1.141841    4.684548
  21 H     1.0000    0     1.008   -1.704471   -5.466449    1.207361
  22 H     1.0000    0     1.008   -4.378484   -3.356029    1.580663
  23 C     6.0000    0    12.011   -4.483976   -2.025856   -3.096609
  24 H     1.0000    0     1.008   -4.094897   -1.208083   -4.971788
  25 H     1.0000    0     1.008   -5.590118   -3.772785   -3.404873
  26 H     1.0000    0     1.008   -5.679349   -0.682195   -2.051029
  27 H     1.0000    0     1.008   -0.830848   -3.906773   -2.743674
* core charge reduced due to ECP

--------------------------------
INTERNAL COORDINATES (ANGSTROEM)
--------------------------------
 Mo     0   0   0     0.000000000000     0.00000000     0.00000000
 C      1   0   0     2.074684088722     0.00000000     0.00000000
 C      1   2   0     3.172271803639    98.29456620     0.00000000
 H      3   1   2     1.106985465723   108.74102463    92.69266755
 H      3   1   2     1.105778748485   115.43747831   331.19027959
 H      3   1   2     1.105450242597   108.94372887   209.85488644
 C      1   2   3     3.175062727965   103.36110048   181.64823661
 C      1   2   3     3.017103548822   137.19978424   286.19854118
 N      3   1   2     1.423321152210     4.38134315   333.17452790
 O      8   1   2     1.409837147050    30.37903240   259.98599389
 O      7   1   2     1.397191907159    22.22067493   336.78326411
 H      7   1   2     1.106741951939   126.01324172    27.05109146
 H      7   1   2     1.108317598259   114.07889527   249.85517273
 H      7   1   2     1.106507081204    89.44599846   139.72946131
 H      8   1   2     1.104676921114   138.65053671   270.82316892
 H      8   1   2     1.107049638182    98.57003264   141.03839815
 H      8   1   2     1.106490031779    92.37551712    31.91418934
 C      1   2   3     2.089178007574    82.37615184    89.32498886
 C     18   1   2     1.584104544556    79.80105094   359.71691848
 H     18   1   2     1.094238837122   115.19051274   109.90954668
 H     18   1   2     1.094203708704   119.44893680   249.37436082
 H     19  18   1     1.096814846456   107.43504765   120.42979688
 H     19  18   1     1.097109487533   107.75042130   240.68232249
 C      2   1   3     1.515189937408   126.94907926    24.54720094
 H     24   2   1     1.101964037924   110.30047969    78.11799138
 H     24   2   1     1.106263499410   111.57189096   197.03914906
 H     24   2   1     1.100838569242   111.77864785   318.15131080
 H      2   1   3     1.097733335099   108.96011104   164.03607313

---------------------------
INTERNAL COORDINATES (A.U.)
---------------------------
 Mo     0   0   0     0.000000000000     0.00000000     0.00000000
 C      1   0   0     3.920584742089     0.00000000     0.00000000
 C      1   2   0     5.994724931238    98.29456620     0.00000000
 H      3   1   2     2.091899364448   108.74102463    92.69266755
 H      3   1   2     2.089618999347   115.43747831   331.19027959
 H      3   1   2     2.088998213184   108.94372887   209.85488644
 C      1   2   3     5.999999013875   103.36110048   181.64823661
 C      1   2   3     5.701499424956   137.19978424   286.19854118
 N      3   1   2     2.689687178294     4.38134315   333.17452790
 O      8   1   2     2.664206101353    30.37903240   259.98599389
 O      7   1   2     2.640310061063    22.22067493   336.78326411
 H      7   1   2     2.091439190086   126.01324172    27.05109146
 H      7   1   2     2.094416730115   114.07889527   249.85517273
 H      7   1   2     2.090995348720    89.44599846   139.72946131
 H      8   1   2     2.087536847368   138.65053671   270.82316892
 H      8   1   2     2.092020632822    98.57003264   141.03839815
 H      8   1   2     2.090963129976    92.37551712    31.91418934
 C      1   2   3     3.947974279326    82.37615184    89.32498886
 C     18   1   2     2.993523756710    79.80105094   359.71691848
 H     18   1   2     2.067811727261   115.19051274   109.90954668
 H     18   1   2     2.067745344171   119.44893680   249.37436082
 H     19  18   1     2.072679679420   107.43504765   120.42979688
 H     19  18   1     2.073236470365   107.75042130   240.68232249
 C      2   1   3     2.863294022573   126.94907926    24.54720094
 H     24   2   1     2.082410241106   110.30047969    78.11799138
 H     24   2   1     2.090535045838   111.57189096   197.03914906
 H     24   2   1     2.080283413524   111.77864785   318.15131080
 H      2   1   3     2.074415371413   108.96011104   164.03607313

---------------------
BASIS SET INFORMATION
---------------------
There are 5 groups of distinct atoms

 Group   1 Type Mo  : 7s7p5d2f1g contracted to 6s4p3d2f1g pattern {211111/4111/311/11/1}
 Group   2 Type C   : 12s6p3d1f contracted to 6s3p3d1f pattern {621111/411/111/1}
 Group   3 Type H   : 5s3p1d contracted to 3s3p1d pattern {311/111/1}
 Group   4 Type N   : 12s6p3d1f contracted to 6s3p3d1f pattern {621111/411/111/1}
 Group   5 Type O   : 12s7p3d1f contracted to 6s4p3d1f pattern {621111/4111/111/1}

Atom   0Mo   basis set group =>   1
Atom   1C    basis set group =>   2
Atom   2C    basis set group =>   2
Atom   3H    basis set group =>   3
Atom   4H    basis set group =>   3
Atom   5H    basis set group =>   3
Atom   6C    basis set group =>   2
Atom   7C    basis set group =>   2
Atom   8N    basis set group =>   4
Atom   9O    basis set group =>   5
Atom  10O    basis set group =>   5
Atom  11H    basis set group =>   3
Atom  12H    basis set group =>   3
Atom  13H    basis set group =>   3
Atom  14H    basis set group =>   3
Atom  15H    basis set group =>   3
Atom  16H    basis set group =>   3
Atom  17C    basis set group =>   2
Atom  18C    basis set group =>   2
Atom  19H    basis set group =>   3
Atom  20H    basis set group =>   3
Atom  21H    basis set group =>   3
Atom  22H    basis set group =>   3
Atom  23C    basis set group =>   2
Atom  24H    basis set group =>   3
Atom  25H    basis set group =>   3
Atom  26H    basis set group =>   3
Atom  27H    basis set group =>   3
----------------------------------
AUXILIARY/JK BASIS SET INFORMATION
----------------------------------
There are 5 groups of distinct atoms

 Group   1 Type Mo  : 13s12p10d9f6g3h2i contracted to 11s10p9d8f6g3h2i pattern {31111111111/3111111111/211111111/21111111/111111/111/11}
 Group   2 Type C   : 14s10p6d2f1g contracted to 10s8p5d1f1g pattern {5111111111/31111111/21111/2/1}
 Group   3 Type H   : 4s2p2d contracted to 2s2p2d pattern {31/11/11}
 Group   4 Type N   : 14s10p6d2f1g contracted to 10s8p4d2f1g pattern {5111111111/31111111/3111/11/1}
 Group   5 Type O   : 14s10p6d2f1g contracted to 10s8p4d2f1g pattern {5111111111/31111111/3111/11/1}

Atom   0Mo   basis set group =>   1
Atom   1C    basis set group =>   2
Atom   2C    basis set group =>   2
Atom   3H    basis set group =>   3
Atom   4H    basis set group =>   3
Atom   5H    basis set group =>   3
Atom   6C    basis set group =>   2
Atom   7C    basis set group =>   2
Atom   8N    basis set group =>   4
Atom   9O    basis set group =>   5
Atom  10O    basis set group =>   5
Atom  11H    basis set group =>   3
Atom  12H    basis set group =>   3
Atom  13H    basis set group =>   3
Atom  14H    basis set group =>   3
Atom  15H    basis set group =>   3
Atom  16H    basis set group =>   3
Atom  17C    basis set group =>   2
Atom  18C    basis set group =>   2
Atom  19H    basis set group =>   3
Atom  20H    basis set group =>   3
Atom  21H    basis set group =>   3
Atom  22H    basis set group =>   3
Atom  23C    basis set group =>   2
Atom  24H    basis set group =>   3
Atom  25H    basis set group =>   3
Atom  26H    basis set group =>   3
Atom  27H    basis set group =>   3
-------------------------
ECP PARAMETER INFORMATION
-------------------------

 Group 1, Type Mo ECP Def2-ECP (replacing 28 core electrons, lmax=3)

Atom   0Mo   ECP group =>   1



           ************************************************************
           *        Program running with 24 parallel MPI-processes    *
           *              working on a common directory               *
           ************************************************************
------------------------------------------------------------------------------
                           ORCA GTO INTEGRAL CALCULATION
------------------------------------------------------------------------------

                         BASIS SET STATISTICS AND STARTUP INFO

 # of primitive gaussian shells          ...  397
 # of primitive gaussian functions       ...  925
 # of contracted shells                  ...  267
 # of contracted basis functions         ...  721
 Highest angular momentum                ...    4
 Maximum contraction depth               ...    6
 Integral package used                   ... LIBINT
 Integral threshhold            Thresh   ...  1.000e-10
 Primitive cut-off              TCut     ...  1.000e-11


------------------------------ INTEGRAL EVALUATION ----------------------------


 * One electron integrals 

   ECP integrals                         ... done
 Pre-screening matrix                    ... done
 Shell pair data                         ... done (   0.008 sec)



           ************************************************************
           *        Program running with 24 parallel MPI-processes    *
           *              working on a common directory               *
           ************************************************************
-------------------------------------------------------------------------------
                                 ORCA SCF
-------------------------------------------------------------------------------

------------
SCF SETTINGS
------------
Hamiltonian:
 Density Functional     Method          .... DFT(GTOs)
 Exchange Functional    Exchange        .... WB97M-V
 Correlation Functional Correlation     .... WB97M-V
 Gradients option       PostSCFGGA      .... off
 Hybrid DFT is turned on
   Fraction HF Exchange ScalHFX         ....  0.150000
   Scaling of DF-GGA-X  ScalDFX         ....  0.000000
   Scaling of DF-GGA-C  ScalDFC         ....  1.000000
   Scaling of DF-LDA-C  ScalLDAC        ....  1.000000
   Perturbative correction              ....  0.000000
   Density functional embedding theory  .... OFF
 Long-range corrected/Screened/Range-Separated Hybrid DFT is turned on
   Amount of maximum screened exact exchange              ....  0.850000
   Range separation parameter mu (erf(mu*r12)/r12)        ....  0.300000
   NL short-range parameter             ....  6.000000
   NL long-range parameter              ....  0.010000


General Settings:
 Integral files         IntName         .... TMB10_C1
 Hartree-Fock type      HFTyp           .... RHF
 Total Charge           Charge          ....    0
 Multiplicity           Mult            ....    1
 Number of Electrons    NEL             ....   96
 Basis Dimension        Dim             ....  721
 Nuclear Repulsion      ENuc            ....    780.1064985801 Eh

Convergence Acceleration:
 DIIS                   CNVDIIS         .... on
   Start iteration      DIISMaxIt       ....    12
   Startup error        DIISStart       ....  0.200000
   # of expansion vecs  DIISMaxEq       ....     5
   Bias factor          DIISBfac        ....   1.050
   Max. coefficient     DIISMaxC        ....  10.000
 Newton-Raphson         CNVNR           .... off
 SOSCF                  CNVSOSCF        .... off
 Level Shifting         CNVShift        .... on
   Level shift para.    LevelShift      ....    0.2500
   Turn off err/grad.   ShiftErr        ....    0.0010
 Zerner damping         CNVZerner       .... off
 Static damping         CNVDamp         .... on
   Fraction old density DampFac         ....    0.7000
   Max. Damping (<1)    DampMax         ....    0.9800
   Min. Damping (>=0)   DampMin         ....    0.0000
   Turn off err/grad.   DampErr         ....    0.1000
 Fernandez-Rico         CNVRico         .... off

SCF Procedure:
 Maximum # iterations   MaxIter         ....   125
 SCF integral mode      SCFMode         .... Direct
   Integral package                     .... LIBINT
 Reset frequency        DirectResetFreq ....    20
 Integral Threshold     Thresh          ....  1.000e-10 Eh
 Primitive CutOff       TCut            ....  1.000e-11 Eh

Convergence Tolerance:
 Convergence Check Mode ConvCheckMode   .... Total+1el-Energy
 Convergence forced     ConvForced      .... 0
 Energy Change          TolE            ....  1.000e-06 Eh
 1-El. energy change                    ....  1.000e-03 Eh
 DIIS Error             TolErr          ....  1.000e-06


Diagonalization of the overlap matrix:
Smallest eigenvalue                        ... 2.823e-06
Time for diagonalization                   ...    0.085 sec
Threshold for overlap eigenvalues          ... 1.000e-08
Number of eigenvalues below threshold      ... 0
Time for construction of square roots      ...    0.076 sec
Total time needed                          ...    0.163 sec

-------------------
DFT GRID GENERATION
-------------------

General Integration Accuracy     IntAcc      ...  4.670
Radial Grid Type                 RadialGrid  ... Gauss-Chebyshev
Angular Grid (max. acc.)         AngularGrid ... Lebedev-302
Angular grid pruning method      GridPruning ... 3 (G Style)
Weight generation scheme         WeightScheme... Becke
Basis function cutoff            BFCut       ...    1.0000e-10
Integration weight cutoff        WCut        ...    1.0000e-14
Grids for H and He will be reduced by one unit

# of grid points (after initial pruning)     ... 130416 (   0.0 sec)
# of grid points (after weights+screening)   ... 115893 (   0.1 sec)
nearest neighbour list constructed           ...    0.0 sec
Grid point re-assignment to atoms done       ...    0.0 sec
Grid point division into batches done        ...    0.4 sec
Reduced shell lists constructed in    0.5 sec

Total number of grid points                  ...   115893
Total number of batches                      ...     1825
Average number of points per batch           ...       63
Average number of grid points per atom       ...     4139
Average number of shells per batch           ...   193.81 (72.59%)
Average number of basis functions per batch  ...   534.53 (74.14%)
Average number of large shells per batch     ...   152.10 (78.48%)
Average number of large basis fcns per batch ...   413.54 (77.37%)
Maximum spatial batch extension              ...   2.24,  2.25,  2.19 au
Average spatial batch extension              ...   0.05,  0.05,  0.05 au

Time for grid setup =    0.670 sec

------------------------------
INITIAL GUESS: MODEL POTENTIAL
------------------------------
Loading Hartree-Fock densities                     ... done
  calling /sw/apps/orca/orca_4_2_0_linux_x86-64_openmpi314/orca TMB10_C1_atom42.inp > TMB10_C1_atom42.out in order to generate an atomic fitting density for atom 0 (Mo with ECP) on-the-fly... 
    atom 0 (Mo), assumed electronic state with S=5: 1s2 2s2 2p6 3s2 3p6 4s2 3d10 4p6 5s2 4d4           ... done
Calculating cut-offs                               ... done
Setting up the integral package                    ... done
Initializing the effective Hamiltonian             ... done
Starting the Coulomb interaction                   ... done (   0.1 sec)
Reading the grid                                   ... done
Mapping shells                                     ... done
Starting the XC term evaluation                    ... done (   0.3 sec)
  promolecular density results
     # of electrons  =    123.992484275
     EX              =   -182.863758628
     EC              =     -4.844885500
     EX+EC           =   -187.708644128
Transforming the Hamiltonian                       ... done (   0.0 sec)
Diagonalizing the Hamiltonian                      ... done (   0.1 sec)
Back transforming the eigenvectors                 ... done (   0.0 sec)
Now organizing SCF variables                       ... done
                      ------------------
                      INITIAL GUESS DONE (   3.2 sec)
                      ------------------
--------------
SCF ITERATIONS
--------------
ITER       Energy         Delta-E        Max-DP      RMS-DP      [F,P]     Damp
               ***  Starting incremental Fock matrix formation  ***
  0   -550.0600831512   0.000000000000 0.73646129  0.00208590  0.3759791 0.7000
  1   -550.3138793446  -0.253796193436 0.19835781  0.00129023  0.2839298 0.7000
  2   -550.4199676382  -0.106088293545 0.17442275  0.00100276  0.2070363 0.7000
                               ***Turning on DIIS***
  3   -550.4866748188  -0.066707180652 0.19747570  0.00078658  0.1453897 0.7000
  4   -550.5325746152  -0.045899796336 0.10847769  0.00052898  0.1006132 0.7000
  5   -550.5644918889  -0.031917273713 0.24716298  0.00125663  0.0708837 0.0000
  6   -550.6392740039  -0.074782115032 0.02759465  0.00009114  0.0022707 0.0000
  7   -550.6393879141  -0.000113910178 0.01108181  0.00004294  0.0015789 0.0000
  8   -550.6394260941  -0.000038180044 0.00557853  0.00002255  0.0013817 0.0000
  9   -550.6394467470  -0.000020652817 0.00650606  0.00003007  0.0008008 0.0000
 10   -550.6394620000  -0.000015253082 0.00224566  0.00001265  0.0004509 0.0000
 11   -550.6394644304  -0.000002430389 0.00283267  0.00000979  0.0001900 0.0000
 12   -550.6394649169  -0.000000486450 0.00553950  0.00001859  0.0001271 0.0000
 13   -550.6394650606  -0.000000143701 0.00382860  0.00001316  0.0000867 0.0000
                 **** Energy Check signals convergence ****

               *****************************************************
               *                     SUCCESS                       *
               *           SCF CONVERGED AFTER  14 CYCLES          *
               *****************************************************


Setting up the DFT-NL grid :

General Integration Accuracy     IntAcc      ...  4.340
Radial Grid Type                 RadialGrid  ... Gauss-Chebyshev
Angular Grid (max. acc.)         AngularGrid ... Lebedev-110
Angular grid pruning method      GridPruning ... 3 (G Style)
Weight generation scheme         WeightScheme... Becke
Basis function cutoff            BFCut       ...    1.0000e-10
Integration weight cutoff        WCut        ...    1.0000e-14
Grids for H and He will be reduced by one unit

# of grid points (after initial pruning)     ...  33504 (   0.0 sec)
# of grid points (after weights+screening)   ...  30278 (   0.0 sec)
nearest neighbour list constructed           ...    0.0 sec
Grid point re-assignment to atoms done       ...    0.0 sec
Grid point division into batches done        ...    0.0 sec
Reduced shell lists constructed in    0.1 sec

Total number of grid points                  ...    30278
Total number of batches                      ...      487
Average number of points per batch           ...       62
Average number of grid points per atom       ...     1081
Average number of shells per batch           ...   193.77 (72.57%)
Average number of basis functions per batch  ...   537.23 (74.51%)
Average number of large shells per batch     ...   155.86 (80.44%)
Average number of large basis fcns per batch ...   426.41 (79.37%)
Maximum spatial batch extension              ...   3.10,  2.81,  2.89 au
Average spatial batch extension              ...   0.08,  0.08,  0.08 au

Final grid set up in    0.1 sec

-------------------------------------------------------------------------------
                         DFT-NL dispersion correction                          
-------------------------------------------------------------------------------

SC Energy -550.639465098 
NL    Energy 0.353613259 
SC+NL Energy -550.285851839 
NL done in    0.3 sec
-------------------------------------------------------------------------------

----------------
TOTAL SCF ENERGY
----------------

Total Energy       :         -550.28585184 Eh          -14974.03929 eV

Components:
Nuclear Repulsion  :          780.10649858 Eh           21227.77703 eV
Electronic Energy  :        -1330.39235042 Eh          -36201.81632 eV
One Electron Energy:        -2321.27499162 Eh          -63165.10377 eV
Two Electron Energy:          990.88264120 Eh           26963.28745 eV

Virial components:
Potential Energy   :        -1053.49012953 Eh          -28666.92382 eV
Kinetic Energy     :          503.20427769 Eh           13692.88453 eV
Virial Ratio       :            2.09356354


DFT components:
N(Alpha)           :       48.000116290238 electrons
N(Beta)            :       48.000116290238 electrons
N(Total)           :       96.000232580476 electrons
E(X)               :      -49.721487212081 Eh       
E(C)               :       -2.986607437682 Eh       
NL Energy, E(C,NL) :        0.353613259429 Eh       
E(XC)              :      -52.354481390333 Eh       
DFET-embed. en.    :        0.000000000000 Eh       

---------------
SCF CONVERGENCE
---------------

  Last Energy change         ...   -3.7407e-08  Tolerance :   1.0000e-06
  Last MAX-Density change    ...    2.1786e-03  Tolerance :   1.0000e-05
  Last RMS-Density change    ...    1.1023e-05  Tolerance :   1.0000e-06
  Last DIIS Error            ...    3.4016e-05  Tolerance :   1.0000e-06

             **** THE GBW FILE WAS UPDATED (TMB10_C1.gbw) ****
             **** DENSITY FILE WAS UPDATED (TMB10_C1.scfp) ****
             **** ENERGY FILE WAS UPDATED (TMB10_C1.en.tmp) ****
             **** THE GBW FILE WAS UPDATED (TMB10_C1.gbw) ****
             **** DENSITY FILE WAS UPDATED (TMB10_C1.scfp) ****
----------------
ORBITAL ENERGIES
----------------

  NO   OCC          E(Eh)            E(eV) 
   0   2.0000     -19.307134      -525.3738 
   1   2.0000     -19.288942      -524.8788 
   2   2.0000     -14.511020      -394.8649 
   3   2.0000     -10.382960      -282.5347 
   4   2.0000     -10.378256      -282.4067 
   5   2.0000     -10.375368      -282.3281 
   6   2.0000     -10.365011      -282.0463 
   7   2.0000     -10.362651      -281.9821 
   8   2.0000     -10.353090      -281.7219 
   9   2.0000     -10.344345      -281.4839 
  10   2.0000      -2.759114       -75.0793 
  11   2.0000      -1.758574       -47.8532 
  12   2.0000      -1.754721       -47.7484 
  13   2.0000      -1.740448       -47.3600 
  14   2.0000      -1.091708       -29.7069 
  15   2.0000      -1.079408       -29.3722 
  16   2.0000      -0.970737       -26.4151 
  17   2.0000      -0.920182       -25.0394 
  18   2.0000      -0.851000       -23.1569 
  19   2.0000      -0.770889       -20.9770 
  20   2.0000      -0.766459       -20.8564 
  21   2.0000      -0.752878       -20.4869 
  22   2.0000      -0.740180       -20.1413 
  23   2.0000      -0.676067       -18.3967 
  24   2.0000      -0.595120       -16.1940 
  25   2.0000      -0.573765       -15.6130 
  26   2.0000      -0.567205       -15.4344 
  27   2.0000      -0.555764       -15.1231 
  28   2.0000      -0.550435       -14.9781 
  29   2.0000      -0.541271       -14.7287 
  30   2.0000      -0.538870       -14.6634 
  31   2.0000      -0.530001       -14.4221 
  32   2.0000      -0.526167       -14.3177 
  33   2.0000      -0.519700       -14.1418 
  34   2.0000      -0.514142       -13.9905 
  35   2.0000      -0.499563       -13.5938 
  36   2.0000      -0.488754       -13.2997 
  37   2.0000      -0.487197       -13.2573 
  38   2.0000      -0.451308       -12.2807 
  39   2.0000      -0.442759       -12.0481 
  40   2.0000      -0.416300       -11.3281 
  41   2.0000      -0.398447       -10.8423 
  42   2.0000      -0.392543       -10.6816 
  43   2.0000      -0.365891        -9.9564 
  44   2.0000      -0.361218        -9.8292 
  45   2.0000      -0.346265        -9.4223 
  46   2.0000      -0.338149        -9.2015 
  47   2.0000      -0.327245        -8.9048 
  48   0.0000       0.018773         0.5108 
  49   0.0000       0.028298         0.7700 
  50   0.0000       0.028502         0.7756 
  51   0.0000       0.039216         1.0671 
  52   0.0000       0.045023         1.2251 
  53   0.0000       0.047902         1.3035 
  54   0.0000       0.050738         1.3806 
  55   0.0000       0.065431         1.7805 
  56   0.0000       0.065895         1.7931 
  57   0.0000       0.069687         1.8963 
  58   0.0000       0.071041         1.9331 
  59   0.0000       0.082893         2.2556 
  60   0.0000       0.091527         2.4906 
  61   0.0000       0.093067         2.5325 
  62   0.0000       0.101901         2.7729 
  63   0.0000       0.109388         2.9766 
  64   0.0000       0.116872         3.1802 
  65   0.0000       0.119047         3.2394 
  66   0.0000       0.125152         3.4056 
  67   0.0000       0.127025         3.4565 
  68   0.0000       0.136200         3.7062 
  69   0.0000       0.142143         3.8679 
  70   0.0000       0.150584         4.0976 
  71   0.0000       0.156653         4.2628 
  72   0.0000       0.160353         4.3634 
  73   0.0000       0.167085         4.5466 
  74   0.0000       0.170206         4.6315 
  75   0.0000       0.177527         4.8308 
  76   0.0000       0.181480         4.9383 
  77   0.0000       0.185265         5.0413 
  78   0.0000       0.187503         5.1022 
  79   0.0000       0.190776         5.1913 
  80   0.0000       0.193450         5.2640 
  81   0.0000       0.200771         5.4632 
  82   0.0000       0.207133         5.6364 
  83   0.0000       0.212144         5.7727 
  84   0.0000       0.215494         5.8639 
  85   0.0000       0.224113         6.0984 
  86   0.0000       0.227029         6.1778 
  87   0.0000       0.231895         6.3102 
  88   0.0000       0.236361         6.4317 
  89   0.0000       0.243218         6.6183 
  90   0.0000       0.245387         6.6773 
  91   0.0000       0.247774         6.7423 
  92   0.0000       0.252783         6.8786 
  93   0.0000       0.255074         6.9409 
  94   0.0000       0.258678         7.0390 
  95   0.0000       0.264159         7.1881 
  96   0.0000       0.272034         7.4024 
  97   0.0000       0.273675         7.4471 
  98   0.0000       0.278029         7.5656 
  99   0.0000       0.279710         7.6113 
 100   0.0000       0.282870         7.6973 
 101   0.0000       0.288049         7.8382 
 102   0.0000       0.296952         8.0805 
 103   0.0000       0.297543         8.0966 
 104   0.0000       0.301024         8.1913 
 105   0.0000       0.307036         8.3549 
 106   0.0000       0.313483         8.5303 
 107   0.0000       0.318165         8.6577 
 108   0.0000       0.320108         8.7106 
 109   0.0000       0.323321         8.7980 
 110   0.0000       0.325491         8.8571 
 111   0.0000       0.327420         8.9096 
 112   0.0000       0.328028         8.9261 
 113   0.0000       0.334337         9.0978 
 114   0.0000       0.336329         9.1520 
 115   0.0000       0.338335         9.2066 
 116   0.0000       0.344236         9.3671 
 117   0.0000       0.347805         9.4642 
 118   0.0000       0.350067         9.5258 
 119   0.0000       0.352685         9.5970 
 120   0.0000       0.355274         9.6675 
 121   0.0000       0.362337         9.8597 
 122   0.0000       0.366206         9.9650 
 123   0.0000       0.367266         9.9938 
 124   0.0000       0.373225        10.1560 
 125   0.0000       0.374151        10.1812 
 126   0.0000       0.378637        10.3032 
 127   0.0000       0.380773        10.3614 
 128   0.0000       0.383495        10.4354 
 129   0.0000       0.386714        10.5230 
 130   0.0000       0.388629        10.5751 
 131   0.0000       0.395005        10.7486 
 132   0.0000       0.396843        10.7986 
 133   0.0000       0.399426        10.8689 
 134   0.0000       0.406509        11.0617 
 135   0.0000       0.409340        11.1387 
 136   0.0000       0.411648        11.2015 
 137   0.0000       0.415877        11.3166 
 138   0.0000       0.420251        11.4356 
 139   0.0000       0.424815        11.5598 
 140   0.0000       0.426534        11.6066 
 141   0.0000       0.430990        11.7278 
 142   0.0000       0.433535        11.7971 
 143   0.0000       0.436276        11.8717 
 144   0.0000       0.438168        11.9232 
 145   0.0000       0.443639        12.0720 
 146   0.0000       0.450855        12.2684 
 147   0.0000       0.457273        12.4430 
 148   0.0000       0.459845        12.5130 
 149   0.0000       0.461966        12.5707 
 150   0.0000       0.468651        12.7526 
 151   0.0000       0.472279        12.8514 
 152   0.0000       0.474169        12.9028 
 153   0.0000       0.474651        12.9159 
 154   0.0000       0.480606        13.0780 
 155   0.0000       0.482832        13.1385 
 156   0.0000       0.486491        13.2381 
 157   0.0000       0.490934        13.3590 
 158   0.0000       0.495611        13.4863 
 159   0.0000       0.498477        13.5643 
 160   0.0000       0.502302        13.6683 
 161   0.0000       0.506566        13.7844 
 162   0.0000       0.508689        13.8421 
 163   0.0000       0.514812        14.0088 
 164   0.0000       0.520749        14.1703 
 165   0.0000       0.523610        14.2481 
 166   0.0000       0.528490        14.3809 
 167   0.0000       0.530277        14.4296 
 168   0.0000       0.537493        14.6259 
 169   0.0000       0.541910        14.7461 
 170   0.0000       0.544011        14.8033 
 171   0.0000       0.549078        14.9412 
 172   0.0000       0.552842        15.0436 
 173   0.0000       0.560263        15.2455 
 174   0.0000       0.566546        15.4165 
 175   0.0000       0.571296        15.5458 
 176   0.0000       0.578962        15.7544 
 177   0.0000       0.580811        15.8047 
 178   0.0000       0.585629        15.9358 
 179   0.0000       0.594998        16.1907 
 180   0.0000       0.601350        16.3636 
 181   0.0000       0.606383        16.5005 
 182   0.0000       0.612647        16.6710 
 183   0.0000       0.619194        16.8491 
 184   0.0000       0.622159        16.9298 
 185   0.0000       0.630254        17.1501 
 186   0.0000       0.633851        17.2480 
 187   0.0000       0.639635        17.4054 
 188   0.0000       0.644368        17.5342 
 189   0.0000       0.648451        17.6452 
 190   0.0000       0.652318        17.7505 
 191   0.0000       0.657994        17.9049 
 192   0.0000       0.669514        18.2184 
 193   0.0000       0.674988        18.3673 
 194   0.0000       0.679101        18.4793 
 195   0.0000       0.685207        18.6454 
 196   0.0000       0.687502        18.7079 
 197   0.0000       0.691516        18.8171 
 198   0.0000       0.702239        19.1089 
 199   0.0000       0.708268        19.2730 
 200   0.0000       0.711692        19.3661 
 201   0.0000       0.716057        19.4849 
 202   0.0000       0.717130        19.5141 
 203   0.0000       0.722538        19.6613 
 204   0.0000       0.727515        19.7967 
 205   0.0000       0.733017        19.9464 
 206   0.0000       0.734031        19.9740 
 207   0.0000       0.742306        20.1992 
 208   0.0000       0.746997        20.3268 
 209   0.0000       0.749616        20.3981 
 210   0.0000       0.751162        20.4401 
 211   0.0000       0.754178        20.5222 
 212   0.0000       0.757874        20.6228 
 213   0.0000       0.764445        20.8016 
 214   0.0000       0.770394        20.9635 
 215   0.0000       0.772385        21.0177 
 216   0.0000       0.778411        21.1816 
 217   0.0000       0.784305        21.3420 
 218   0.0000       0.791362        21.5341 
 219   0.0000       0.792942        21.5770 
 220   0.0000       0.795501        21.6467 
 221   0.0000       0.803562        21.8660 
 222   0.0000       0.806529        21.9468 
 223   0.0000       0.818082        22.2611 
 224   0.0000       0.823828        22.4175 
 225   0.0000       0.829140        22.5620 
 226   0.0000       0.841571        22.9003 
 227   0.0000       0.843265        22.9464 
 228   0.0000       0.849440        23.1144 
 229   0.0000       0.856492        23.3063 
 230   0.0000       0.860089        23.4042 
 231   0.0000       0.867538        23.6069 
 232   0.0000       0.868679        23.6379 
 233   0.0000       0.876739        23.8573 
 234   0.0000       0.879473        23.9317 
 235   0.0000       0.884568        24.0703 
 236   0.0000       0.888007        24.1639 
 237   0.0000       0.893801        24.3216 
 238   0.0000       0.901096        24.5201 
 239   0.0000       0.910100        24.7651 
 240   0.0000       0.914307        24.8795 
 241   0.0000       0.934550        25.4304 
 242   0.0000       0.937392        25.5077 
 243   0.0000       0.940599        25.5950 
 244   0.0000       0.945226        25.7209 
 245   0.0000       0.955007        25.9871 
 246   0.0000       0.964540        26.2465 
 247   0.0000       0.976789        26.5798 
 248   0.0000       0.993941        27.0465 
 249   0.0000       0.996194        27.1078 
 250   0.0000       1.008408        27.4402 
 251   0.0000       1.015700        27.6386 
 252   0.0000       1.025682        27.9102 
 253   0.0000       1.037318        28.2269 
 254   0.0000       1.044816        28.4309 
 255   0.0000       1.051922        28.6243 
 256   0.0000       1.067796        29.0562 
 257   0.0000       1.074385        29.2355 
 258   0.0000       1.085508        29.5382 
 259   0.0000       1.100747        29.9529 
 260   0.0000       1.104926        30.0666 
 261   0.0000       1.111085        30.2342 
 262   0.0000       1.116941        30.3935 
 263   0.0000       1.126975        30.6666 
 264   0.0000       1.138884        30.9906 
 265   0.0000       1.144004        31.1299 
 266   0.0000       1.147633        31.2287 
 267   0.0000       1.156841        31.4792 
 268   0.0000       1.159984        31.5648 
 269   0.0000       1.163406        31.6579 
 270   0.0000       1.173399        31.9298 
 271   0.0000       1.184622        32.2352 
 272   0.0000       1.185842        32.2684 
 273   0.0000       1.208467        32.8840 
 274   0.0000       1.214715        33.0541 
 275   0.0000       1.218637        33.1608 
 276   0.0000       1.223959        33.3056 
 277   0.0000       1.231212        33.5030 
 278   0.0000       1.235611        33.6227 
 279   0.0000       1.242394        33.8073 
 280   0.0000       1.242797        33.8182 
 281   0.0000       1.256746        34.1978 
 282   0.0000       1.267503        34.4905 
 283   0.0000       1.270450        34.5707 
 284   0.0000       1.283868        34.9358 
 285   0.0000       1.286667        35.0120 
 286   0.0000       1.294292        35.2195 
 287   0.0000       1.305289        35.5187 
 288   0.0000       1.312950        35.7272 
 289   0.0000       1.317819        35.8597 
 290   0.0000       1.326545        36.0971 
 291   0.0000       1.328409        36.1478 
 292   0.0000       1.336723        36.3741 
 293   0.0000       1.342619        36.5345 
 294   0.0000       1.352652        36.8075 
 295   0.0000       1.365351        37.1531 
 296   0.0000       1.370483        37.2927 
 297   0.0000       1.377254        37.4770 
 298   0.0000       1.390221        37.8298 
 299   0.0000       1.399771        38.0897 
 300   0.0000       1.407032        38.2873 
 301   0.0000       1.411227        38.4014 
 302   0.0000       1.415544        38.5189 
 303   0.0000       1.422124        38.6980 
 304   0.0000       1.424536        38.7636 
 305   0.0000       1.438839        39.1528 
 306   0.0000       1.449116        39.4325 
 307   0.0000       1.449814        39.4514 
 308   0.0000       1.457018        39.6475 
 309   0.0000       1.459876        39.7252 
 310   0.0000       1.468958        39.9724 
 311   0.0000       1.471017        40.0284 
 312   0.0000       1.478002        40.2185 
 313   0.0000       1.483230        40.3607 
 314   0.0000       1.503633        40.9159 
 315   0.0000       1.508952        41.0607 
 316   0.0000       1.512426        41.1552 
 317   0.0000       1.513998        41.1980 
 318   0.0000       1.516904        41.2771 
 319   0.0000       1.530187        41.6385 
 320   0.0000       1.542835        41.9827 
 321   0.0000       1.548032        42.1241 
 322   0.0000       1.552576        42.2477 
 323   0.0000       1.564658        42.5765 
 324   0.0000       1.570145        42.7258 
 325   0.0000       1.582362        43.0583 
 326   0.0000       1.586553        43.1723 
 327   0.0000       1.594393        43.3856 
 328   0.0000       1.596011        43.4297 
 329   0.0000       1.601546        43.5803 
 330   0.0000       1.609279        43.7907 
 331   0.0000       1.617068        44.0027 
 332   0.0000       1.626875        44.2695 
 333   0.0000       1.643481        44.7214 
 334   0.0000       1.653479        44.9934 
 335   0.0000       1.658255        45.1234 
 336   0.0000       1.668799        45.4103 
 337   0.0000       1.683774        45.8178 
 338   0.0000       1.687169        45.9102 
 339   0.0000       1.698547        46.2198 
 340   0.0000       1.700902        46.2839 
 341   0.0000       1.708936        46.5025 
 342   0.0000       1.723466        46.8979 
 343   0.0000       1.733009        47.1576 
 344   0.0000       1.738248        47.3001 
 345   0.0000       1.742245        47.4089 
 346   0.0000       1.745147        47.4879 
 347   0.0000       1.756441        47.7952 
 348   0.0000       1.764709        48.0202 
 349   0.0000       1.766959        48.0814 
 350   0.0000       1.778194        48.3871 
 351   0.0000       1.782526        48.5050 
 352   0.0000       1.785680        48.5908 
 353   0.0000       1.798788        48.9475 
 354   0.0000       1.807689        49.1897 
 355   0.0000       1.822459        49.5916 
 356   0.0000       1.832914        49.8761 
 357   0.0000       1.860689        50.6319 
 358   0.0000       1.862421        50.6791 
 359   0.0000       1.884720        51.2858 
 360   0.0000       1.895454        51.5779 
 361   0.0000       1.912009        52.0284 
 362   0.0000       1.950364        53.0721 
 363   0.0000       1.972555        53.6759 
 364   0.0000       1.980550        53.8935 
 365   0.0000       1.999001        54.3956 
 366   0.0000       2.002133        54.4808 
 367   0.0000       2.010251        54.7017 
 368   0.0000       2.017903        54.9099 
 369   0.0000       2.032925        55.3187 
 370   0.0000       2.046571        55.6900 
 371   0.0000       2.052052        55.8392 
 372   0.0000       2.070335        56.3367 
 373   0.0000       2.082556        56.6692 
 374   0.0000       2.086027        56.7637 
 375   0.0000       2.103476        57.2385 
 376   0.0000       2.127058        57.8802 
 377   0.0000       2.140492        58.2458 
 378   0.0000       2.154404        58.6243 
 379   0.0000       2.183757        59.4230 
 380   0.0000       2.198430        59.8223 
 381   0.0000       2.205093        60.0036 
 382   0.0000       2.221979        60.4631 
 383   0.0000       2.242809        61.0299 
 384   0.0000       2.246516        61.1308 
 385   0.0000       2.273460        61.8640 
 386   0.0000       2.309561        62.8464 
 387   0.0000       2.327564        63.3362 
 388   0.0000       2.360742        64.2391 
 389   0.0000       2.379971        64.7623 
 390   0.0000       2.401282        65.3422 
 391   0.0000       2.409263        65.5594 
 392   0.0000       2.419898        65.8488 
 393   0.0000       2.421954        65.9047 
 394   0.0000       2.451726        66.7149 
 395   0.0000       2.460435        66.9518 
 396   0.0000       2.487584        67.6906 
 397   0.0000       2.522844        68.6501 
 398   0.0000       2.540675        69.1353 
 399   0.0000       2.583182        70.2920 
 400   0.0000       2.612379        71.0864 
 401   0.0000       2.613445        71.1155 
 402   0.0000       2.630699        71.5849 
 403   0.0000       2.648241        72.0623 
 404   0.0000       2.666716        72.5650 
 405   0.0000       2.679666        72.9174 
 406   0.0000       2.683285        73.0159 
 407   0.0000       2.702126        73.5286 
 408   0.0000       2.710580        73.7586 
 409   0.0000       2.735005        74.4233 
 410   0.0000       2.756858        75.0179 
 411   0.0000       2.763595        75.2012 
 412   0.0000       2.774784        75.5057 
 413   0.0000       2.780672        75.6659 
 414   0.0000       2.792915        75.9991 
 415   0.0000       2.803557        76.2887 
 416   0.0000       2.807575        76.3980 
 417   0.0000       2.824135        76.8486 
 418   0.0000       2.832743        77.0829 
 419   0.0000       2.834806        77.1390 
 420   0.0000       2.853521        77.6482 
 421   0.0000       2.854488        77.6746 
 422   0.0000       2.864104        77.9362 
 423   0.0000       2.871375        78.1341 
 424   0.0000       2.877880        78.3111 
 425   0.0000       2.889535        78.6282 
 426   0.0000       2.897238        78.8379 
 427   0.0000       2.903187        78.9997 
 428   0.0000       2.908903        79.1553 
 429   0.0000       2.913909        79.2915 
 430   0.0000       2.926387        79.6310 
 431   0.0000       2.929790        79.7236 
 432   0.0000       2.937669        79.9380 
 433   0.0000       2.943323        80.0919 
 434   0.0000       2.944121        80.1136 
 435   0.0000       2.950188        80.2787 
 436   0.0000       2.953789        80.3767 
 437   0.0000       2.969903        80.8152 
 438   0.0000       2.980266        81.0972 
 439   0.0000       2.986433        81.2650 
 440   0.0000       2.996908        81.5500 
 441   0.0000       3.007124        81.8280 
 442   0.0000       3.024128        82.2907 
 443   0.0000       3.024980        82.3139 
 444   0.0000       3.054748        83.1239 
 445   0.0000       3.056704        83.1771 
 446   0.0000       3.071944        83.5919 
 447   0.0000       3.076510        83.7161 
 448   0.0000       3.085060        83.9487 
 449   0.0000       3.092638        84.1550 
 450   0.0000       3.106554        84.5336 
 451   0.0000       3.110411        84.6386 
 452   0.0000       3.114927        84.7615 
 453   0.0000       3.124434        85.0202 
 454   0.0000       3.130974        85.1981 
 455   0.0000       3.142003        85.4982 
 456   0.0000       3.154041        85.8258 
 457   0.0000       3.161621        86.0321 
 458   0.0000       3.173476        86.3547 
 459   0.0000       3.181934        86.5848 
 460   0.0000       3.197807        87.0168 
 461   0.0000       3.203305        87.1663 
 462   0.0000       3.217087        87.5414 
 463   0.0000       3.229789        87.8870 
 464   0.0000       3.242245        88.2260 
 465   0.0000       3.245142        88.3048 
 466   0.0000       3.256279        88.6078 
 467   0.0000       3.263814        88.8129 
 468   0.0000       3.274630        89.1072 
 469   0.0000       3.290068        89.5273 
 470   0.0000       3.294886        89.6584 
 471   0.0000       3.304376        89.9166 
 472   0.0000       3.314793        90.2001 
 473   0.0000       3.326955        90.5310 
 474   0.0000       3.330003        90.6140 
 475   0.0000       3.339504        90.8725 
 476   0.0000       3.349774        91.1520 
 477   0.0000       3.357538        91.3632 
 478   0.0000       3.369969        91.7015 
 479   0.0000       3.373570        91.7995 
 480   0.0000       3.384508        92.0971 
 481   0.0000       3.395221        92.3887 
 482   0.0000       3.400271        92.5261 
 483   0.0000       3.411157        92.8223 
 484   0.0000       3.426636        93.2435 
 485   0.0000       3.433819        93.4390 
 486   0.0000       3.440863        93.6307 
 487   0.0000       3.452625        93.9507 
 488   0.0000       3.461106        94.1815 
 489   0.0000       3.463641        94.2505 
 490   0.0000       3.472077        94.4800 
 491   0.0000       3.479172        94.6731 
 492   0.0000       3.484890        94.8287 
 493   0.0000       3.496451        95.1433 
 494   0.0000       3.500206        95.2455 
 495   0.0000       3.505649        95.3936 
 496   0.0000       3.527774        95.9956 
 497   0.0000       3.545356        96.4740 
 498   0.0000       3.551796        96.6493 
 499   0.0000       3.559184        96.8503 
 500   0.0000       3.563355        96.9638 
 501   0.0000       3.573946        97.2520 
 502   0.0000       3.589734        97.6816 
 503   0.0000       3.599086        97.9361 
 504   0.0000       3.604037        98.0708 
 505   0.0000       3.610526        98.2474 
 506   0.0000       3.615215        98.3750 
 507   0.0000       3.622076        98.5617 
 508   0.0000       3.632150        98.8358 
 509   0.0000       3.642475        99.1168 
 510   0.0000       3.657121        99.5153 
 511   0.0000       3.664248        99.7093 
 512   0.0000       3.681027       100.1658 
 513   0.0000       3.699340       100.6641 
 514   0.0000       3.719069       101.2010 
 515   0.0000       3.722303       101.2890 
 516   0.0000       3.751329       102.0789 
 517   0.0000       3.754926       102.1767 
 518   0.0000       3.765541       102.4656 
 519   0.0000       3.776447       102.7624 
 520   0.0000       3.787984       103.0763 
 521   0.0000       3.800980       103.4299 
 522   0.0000       3.804098       103.5148 
 523   0.0000       3.809771       103.6691 
 524   0.0000       3.818211       103.8988 
 525   0.0000       3.830681       104.2381 
 526   0.0000       3.836558       104.3980 
 527   0.0000       3.844984       104.6273 
 528   0.0000       3.852444       104.8303 
 529   0.0000       3.864122       105.1481 
 530   0.0000       3.872824       105.3849 
 531   0.0000       3.885444       105.7283 
 532   0.0000       3.892380       105.9170 
 533   0.0000       3.897619       106.0596 
 534   0.0000       3.908291       106.3500 
 535   0.0000       3.921482       106.7089 
 536   0.0000       3.929242       106.9201 
 537   0.0000       3.949354       107.4674 
 538   0.0000       3.951528       107.5266 
 539   0.0000       3.965674       107.9115 
 540   0.0000       3.981316       108.3371 
 541   0.0000       3.985083       108.4396 
 542   0.0000       3.991781       108.6219 
 543   0.0000       4.000979       108.8722 
 544   0.0000       4.016588       109.2969 
 545   0.0000       4.027510       109.5941 
 546   0.0000       4.044361       110.0526 
 547   0.0000       4.045536       110.0846 
 548   0.0000       4.059628       110.4681 
 549   0.0000       4.067647       110.6863 
 550   0.0000       4.084493       111.1447 
 551   0.0000       4.093522       111.3904 
 552   0.0000       4.115968       112.0012 
 553   0.0000       4.119035       112.0847 
 554   0.0000       4.130896       112.4074 
 555   0.0000       4.144615       112.7807 
 556   0.0000       4.148621       112.8897 
 557   0.0000       4.170117       113.4746 
 558   0.0000       4.173145       113.5571 
 559   0.0000       4.184404       113.8634 
 560   0.0000       4.190005       114.0158 
 561   0.0000       4.193510       114.1112 
 562   0.0000       4.204463       114.4093 
 563   0.0000       4.212811       114.6364 
 564   0.0000       4.229133       115.0806 
 565   0.0000       4.236294       115.2754 
 566   0.0000       4.255269       115.7918 
 567   0.0000       4.256540       115.8264 
 568   0.0000       4.261595       115.9639 
 569   0.0000       4.265480       116.0696 
 570   0.0000       4.271650       116.2375 
 571   0.0000       4.272042       116.2482 
 572   0.0000       4.289755       116.7302 
 573   0.0000       4.309329       117.2628 
 574   0.0000       4.322253       117.6145 
 575   0.0000       4.338990       118.0699 
 576   0.0000       4.347842       118.3108 
 577   0.0000       4.357664       118.5781 
 578   0.0000       4.363797       118.7449 
 579   0.0000       4.376129       119.0805 
 580   0.0000       4.379487       119.1719 
 581   0.0000       4.386350       119.3586 
 582   0.0000       4.391723       119.5049 
 583   0.0000       4.397678       119.6669 
 584   0.0000       4.407689       119.9393 
 585   0.0000       4.418060       120.2215 
 586   0.0000       4.426265       120.4448 
 587   0.0000       4.446283       120.9895 
 588   0.0000       4.459130       121.3391 
 589   0.0000       4.465217       121.5047 
 590   0.0000       4.471352       121.6717 
 591   0.0000       4.483547       122.0035 
 592   0.0000       4.493035       122.2617 
 593   0.0000       4.508302       122.6771 
 594   0.0000       4.520851       123.0186 
 595   0.0000       4.528560       123.2284 
 596   0.0000       4.553347       123.9029 
 597   0.0000       4.576602       124.5357 
 598   0.0000       4.594091       125.0116 
 599   0.0000       4.615858       125.6039 
 600   0.0000       4.635912       126.1496 
 601   0.0000       4.642877       126.3391 
 602   0.0000       4.652424       126.5989 
 603   0.0000       4.678757       127.3155 
 604   0.0000       4.681119       127.3797 
 605   0.0000       4.701404       127.9317 
 606   0.0000       4.709244       128.1450 
 607   0.0000       4.713985       128.2741 
 608   0.0000       4.730923       128.7350 
 609   0.0000       4.744646       129.1084 
 610   0.0000       4.749542       129.2416 
 611   0.0000       4.760501       129.5398 
 612   0.0000       4.794865       130.4749 
 613   0.0000       4.810422       130.8982 
 614   0.0000       4.845930       131.8645 
 615   0.0000       4.860612       132.2640 
 616   0.0000       4.870519       132.5336 
 617   0.0000       4.878863       132.7606 
 618   0.0000       4.904851       133.4678 
 619   0.0000       4.924621       134.0057 
 620   0.0000       4.932278       134.2141 
 621   0.0000       4.944051       134.5345 
 622   0.0000       4.962115       135.0260 
 623   0.0000       4.989641       135.7750 
 624   0.0000       5.008776       136.2957 
 625   0.0000       5.016856       136.5156 
 626   0.0000       5.024342       136.7193 
 627   0.0000       5.031857       136.9238 
 628   0.0000       5.039059       137.1198 
 629   0.0000       5.050598       137.4338 
 630   0.0000       5.053251       137.5060 
 631   0.0000       5.059328       137.6713 
 632   0.0000       5.070461       137.9743 
 633   0.0000       5.072654       138.0339 
 634   0.0000       5.079552       138.2216 
 635   0.0000       5.081474       138.2739 
 636   0.0000       5.110674       139.0685 
 637   0.0000       5.132469       139.6616 
 638   0.0000       5.152015       140.1935 
 639   0.0000       5.164598       140.5359 
 640   0.0000       5.176883       140.8701 
 641   0.0000       5.213795       141.8746 
 642   0.0000       5.225183       142.1845 
 643   0.0000       5.238409       142.5444 
 644   0.0000       5.245239       142.7302 
 645   0.0000       5.256074       143.0250 
 646   0.0000       5.260600       143.1482 
 647   0.0000       5.278672       143.6400 
 648   0.0000       5.290945       143.9739 
 649   0.0000       5.321411       144.8030 
 650   0.0000       5.332926       145.1163 
 651   0.0000       5.335166       145.1772 
 652   0.0000       5.358614       145.8153 
 653   0.0000       5.378147       146.3468 
 654   0.0000       5.386484       146.5737 
 655   0.0000       5.393802       146.7728 
 656   0.0000       5.404762       147.0711 
 657   0.0000       5.418427       147.4429 
 658   0.0000       5.424979       147.6212 
 659   0.0000       5.432487       147.8255 
 660   0.0000       5.437033       147.9492 
 661   0.0000       5.454629       148.4280 
 662   0.0000       5.463204       148.6613 
 663   0.0000       5.483609       149.2166 
 664   0.0000       5.488320       149.3448 
 665   0.0000       5.498825       149.6306 
 666   0.0000       5.509931       149.9328 
 667   0.0000       5.532476       150.5463 
 668   0.0000       5.539879       150.7478 
 669   0.0000       5.547727       150.9613 
 670   0.0000       5.561007       151.3227 
 671   0.0000       5.582441       151.9059 
 672   0.0000       5.598999       152.3565 
 673   0.0000       5.604279       152.5002 
 674   0.0000       5.623280       153.0172 
 675   0.0000       5.669009       154.2616 
 676   0.0000       5.675367       154.4346 
 677   0.0000       5.684817       154.6917 
 678   0.0000       5.693347       154.9238 
 679   0.0000       5.701189       155.1372 
 680   0.0000       5.714302       155.4941 
 681   0.0000       5.734204       156.0356 
 682   0.0000       5.750069       156.4673 
 683   0.0000       5.760318       156.7462 
 684   0.0000       5.786335       157.4542 
 685   0.0000       5.802682       157.8990 
 686   0.0000       5.807028       158.0173 
 687   0.0000       5.855770       159.3436 
 688   0.0000       5.899387       160.5305 
 689   0.0000       5.947155       161.8303 
 690   0.0000       5.964657       162.3066 
 691   0.0000       6.046210       164.5257 
 692   0.0000       6.123745       166.6356 
 693   0.0000       6.190470       168.4512 
 694   0.0000       6.274556       170.7394 
 695   0.0000       6.348494       172.7513 
 696   0.0000       6.467332       175.9851 
 697   0.0000       6.599355       179.5776 
 698   0.0000       6.744921       183.5386 
 699   0.0000       6.782448       184.5598 
 700   0.0000       6.818440       185.5392 
 701   0.0000       6.892756       187.5614 
 702   0.0000       6.931800       188.6239 
 703   0.0000       7.095488       193.0781 
 704   0.0000       7.200810       195.9440 
 705   0.0000       7.402863       201.4421 
 706   0.0000       7.513454       204.4515 
 707   0.0000       7.601919       206.8587 
 708   0.0000       7.781262       211.7389 
 709   0.0000      23.626179       642.9010 
 710   0.0000      23.843835       648.8237 
 711   0.0000      23.845313       648.8640 
 712   0.0000      23.986561       652.7075 
 713   0.0000      24.030207       653.8952 
 714   0.0000      24.036497       654.0663 
 715   0.0000      24.051355       654.4707 
 716   0.0000      25.760761       700.9860 
 717   0.0000      33.640735       915.4110 
 718   0.0000      44.906972      1221.9808 
 719   0.0000      45.058567      1226.1059 
 720   0.0000      86.060352      2341.8212 

                    ********************************
                    * MULLIKEN POPULATION ANALYSIS *
                    ********************************

-----------------------
MULLIKEN ATOMIC CHARGES
-----------------------
   0 Mo:    0.449589
   1 C :    0.390208
   2 C :   -0.680349
   3 H :    0.263369
   4 H :    0.260608
   5 H :    0.260958
   6 C :   -0.669168
   7 C :   -0.589181
   8 N :   -0.518448
   9 O :   -0.529085
  10 O :   -0.370076
  11 H :    0.216185
  12 H :    0.232622
  13 H :    0.217883
  14 H :    0.206329
  15 H :    0.227331
  16 H :    0.215763
  17 C :   -0.497553
  18 C :   -0.245448
  19 H :    0.281053
  20 H :    0.256060
  21 H :    0.339222
  22 H :    0.350519
  23 C :   -1.351474
  24 H :    0.291656
  25 H :    0.316426
  26 H :    0.236485
  27 H :    0.438518
Sum of atomic charges:   -0.0000000

--------------------------------
MULLIKEN REDUCED ORBITAL CHARGES
--------------------------------
  0 Mos       :     3.205446  s :     3.205446
      pz      :     2.307521  p :     6.334636
      px      :     1.844124
      py      :     2.182991
      dz2     :     0.814732  d :     3.779473
      dxz     :     0.718017
      dyz     :     0.867552
      dx2y2   :     0.740593
      dxy     :     0.638579
      f0      :     0.022138  f :     0.217308
      f+1     :     0.018228
      f-1     :     0.023118
      f+2     :     0.008560
      f-2     :     0.051581
      f+3     :     0.050535
      f-3     :     0.043147
      g0      :     0.001091  g :     0.013547
      g+1     :     0.001157
      g-1     :     0.001227
      g+2     :     0.000538
      g-2     :     0.002067
      g+3     :     0.001193
      g-3     :     0.001314
      g+4     :     0.002296
      g-4     :     0.002664
  1 C s       :     3.093838  s :     3.093838
      pz      :     0.769439  p :     2.606680
      px      :     0.834260
      py      :     1.002982
      dz2     :    -0.067062  d :    -0.096340
      dxz     :     0.003656
      dyz     :    -0.022299
      dx2y2   :    -0.000302
      dxy     :    -0.010333
      f0      :     0.001038  f :     0.005614
      f+1     :     0.001107
      f-1     :     0.000536
      f+2     :     0.000825
      f-2     :     0.000876
      f+3     :     0.000574
      f-3     :     0.000658
  2 C s       :     3.367863  s :     3.367863
      pz      :     1.189468  p :     3.169390
      px      :     1.004859
      py      :     0.975062
      dz2     :     0.034558  d :     0.138021
      dxz     :     0.049644
      dyz     :     0.007003
      dx2y2   :     0.035751
      dxy     :     0.011065
      f0      :     0.000504  f :     0.005076
      f+1     :     0.000662
      f-1     :     0.000498
      f+2     :     0.000158
      f-2     :     0.000951
      f+3     :     0.001167
      f-3     :     0.001136
  3 H s       :     0.690639  s :     0.690639
      pz      :     0.022791  p :     0.043693
      px      :     0.016477
      py      :     0.004425
      dz2     :     0.000682  d :     0.002299
      dxz     :     0.000670
      dyz     :     0.000631
      dx2y2   :     0.000116
      dxy     :     0.000199
  4 H s       :     0.692644  s :     0.692644
      pz      :     0.017313  p :     0.044479
      px      :     0.021246
      py      :     0.005920
      dz2     :     0.000617  d :     0.002269
      dxz     :     0.000504
      dyz     :     0.000271
      dx2y2   :     0.000323
      dxy     :     0.000554
  5 H s       :     0.700643  s :     0.700643
      pz      :     0.010398  p :     0.036100
      px      :     0.004299
      py      :     0.021403
      dz2     :     0.000169  d :     0.002299
      dxz     :     0.000165
      dyz     :     0.000584
      dx2y2   :     0.000694
      dxy     :     0.000686
  6 C s       :     3.420100  s :     3.420100
      pz      :     1.172650  p :     3.044111
      px      :     0.689813
      py      :     1.181648
      dz2     :     0.028149  d :     0.196179
      dxz     :     0.080707
      dyz     :     0.017706
      dx2y2   :     0.008343
      dxy     :     0.061274
      f0      :     0.001147  f :     0.008778
      f+1     :     0.000900
      f-1     :     0.000445
      f+2     :     0.001845
      f-2     :    -0.000030
      f+3     :     0.001605
      f-3     :     0.002866
  7 C s       :     3.408192  s :     3.408192
      pz      :     1.148554  p :     3.016405
      px      :     1.177673
      py      :     0.690178
      dz2     :     0.003130  d :     0.156316
      dxz     :     0.017595
      dyz     :     0.065904
      dx2y2   :     0.026235
      dxy     :     0.043452
      f0      :     0.001138  f :     0.008267
      f+1     :     0.000202
      f-1     :     0.000983
      f+2     :     0.001956
      f-2     :     0.000028
      f+3     :     0.002411
      f-3     :     0.001550
  8 N s       :     4.042598  s :     4.042598
      pz      :     1.294794  p :     3.521926
      px      :     1.111521
      py      :     1.115611
      dz2     :    -0.001100  d :    -0.050834
      dxz     :     0.006275
      dyz     :    -0.001298
      dx2y2   :    -0.023694
      dxy     :    -0.031017
      f0      :     0.000469  f :     0.004758
      f+1     :     0.000477
      f-1     :     0.000479
      f+2     :     0.000167
      f-2     :     0.000864
      f+3     :     0.001138
      f-3     :     0.001163
  9 O s       :     3.843900  s :     3.843900
      pz      :     1.779194  p :     4.666801
      px      :     1.664698
      py      :     1.222910
      dz2     :     0.005086  d :     0.016928
      dxz     :     0.004193
      dyz     :     0.007815
      dx2y2   :     0.000339
      dxy     :    -0.000503
      f0      :     0.000165  f :     0.001455
      f+1     :     0.000071
      f-1     :     0.000292
      f+2     :     0.000161
      f-2     :     0.000096
      f+3     :     0.000274
      f-3     :     0.000396
 10 O s       :     3.792997  s :     3.792997
      pz      :     1.735522  p :     4.581398
      px      :     1.128645
      py      :     1.717230
      dz2     :     0.001789  d :    -0.005883
      dxz     :     0.005542
      dyz     :     0.004380
      dx2y2   :    -0.012331
      dxy     :    -0.005264
      f0      :     0.000162  f :     0.001564
      f+1     :     0.000310
      f-1     :     0.000058
      f+2     :     0.000163
      f-2     :     0.000065
      f+3     :     0.000476
      f-3     :     0.000329
 11 H s       :     0.741815  s :     0.741815
      pz      :     0.014437  p :     0.039804
      px      :     0.007595
      py      :     0.017772
      dz2     :     0.000628  d :     0.002197
      dxz     :     0.000356
      dyz     :     0.000426
      dx2y2   :     0.000455
      dxy     :     0.000331
 12 H s       :     0.728264  s :     0.728264
      pz      :     0.016008  p :     0.036906
      px      :     0.006368
      py      :     0.014530
      dz2     :     0.000681  d :     0.002208
      dxz     :     0.000550
      dyz     :     0.000577
      dx2y2   :     0.000261
      dxy     :     0.000139
 13 H s       :     0.747063  s :     0.747063
      pz      :     0.002428  p :     0.032755
      px      :     0.009506
      py      :     0.020821
      dz2     :     0.000209  d :     0.002299
      dxz     :     0.000113
      dyz     :     0.000587
      dx2y2   :     0.000740
      dxy     :     0.000651
 14 H s       :     0.750255  s :     0.750255
      pz      :     0.005317  p :     0.041189
      px      :     0.020491
      py      :     0.015381
      dz2     :     0.000358  d :     0.002228
      dxz     :     0.000521
      dyz     :     0.000192
      dx2y2   :     0.000658
      dxy     :     0.000498
 15 H s       :     0.748177  s :     0.748177
      pz      :     0.016737  p :     0.022268
      px      :    -0.005830
      py      :     0.011360
      dz2     :     0.000686  d :     0.002225
      dxz     :     0.000607
      dyz     :     0.000552
      dx2y2   :     0.000261
      dxy     :     0.000119
 16 H s       :     0.766183  s :     0.766183
      pz      :    -0.002898  p :     0.015820
      px      :     0.008466
      py      :     0.010251
      dz2     :     0.000522  d :     0.002235
      dxz     :     0.000467
      dyz     :     0.000268
      dx2y2   :     0.000503
      dxy     :     0.000475
 17 C s       :     3.198449  s :     3.198449
      pz      :     1.025287  p :     3.281590
      px      :     1.154256
      py      :     1.102048
      dz2     :    -0.015922  d :     0.013861
      dxz     :     0.019543
      dyz     :     0.015550
      dx2y2   :    -0.008175
      dxy     :     0.002864
      f0      :     0.000453  f :     0.003653
      f+1     :     0.000556
      f-1     :     0.000652
      f+2     :     0.000589
      f-2     :     0.000920
      f+3     :     0.000162
      f-3     :     0.000321
 18 C s       :     3.331830  s :     3.331830
      pz      :     0.833853  p :     2.965355
      px      :     1.142224
      py      :     0.989278
      dz2     :     0.030458  d :    -0.056257
      dxz     :    -0.020807
      dyz     :    -0.034988
      dx2y2   :     0.040051
      dxy     :    -0.070971
      f0      :     0.000963  f :     0.004519
      f+1     :     0.000825
      f-1     :     0.000953
      f+2     :     0.000517
      f-2     :     0.000550
      f+3     :     0.000436
      f-3     :     0.000275
 19 H s       :     0.620224  s :     0.620224
      pz      :     0.046942  p :     0.096114
      px      :     0.028116
      py      :     0.021056
      dz2     :     0.000420  d :     0.002609
      dxz     :     0.000525
      dyz     :     0.000458
      dx2y2   :     0.000762
      dxy     :     0.000443
 20 H s       :     0.643006  s :     0.643006
      pz      :     0.046870  p :     0.098378
      px      :     0.019365
      py      :     0.032143
      dz2     :     0.000692  d :     0.002556
      dxz     :     0.000519
      dyz     :     0.000493
      dx2y2   :     0.000431
      dxy     :     0.000420
 21 H s       :     0.592509  s :     0.592509
      pz      :     0.013282  p :     0.065637
      px      :     0.026228
      py      :     0.026127
      dz2     :     0.000189  d :     0.002632
      dxz     :     0.000086
      dyz     :     0.000964
      dx2y2   :     0.000684
      dxy     :     0.000709
 22 H s       :     0.572488  s :     0.572488
      pz      :     0.016707  p :     0.074345
      px      :     0.034232
      py      :     0.023406
      dz2     :     0.000278  d :     0.002648
      dxz     :     0.001006
      dyz     :     0.000050
      dx2y2   :     0.000500
      dxy     :     0.000815
 23 C s       :     3.673528  s :     3.673528
      pz      :     1.255399  p :     3.545373
      px      :     1.030603
      py      :     1.259371
      dz2     :     0.022205  d :     0.129719
      dxz     :     0.012370
      dyz     :     0.021263
      dx2y2   :     0.007699
      dxy     :     0.066182
      f0      :     0.000223  f :     0.002854
      f+1     :     0.000592
      f-1     :     0.000136
      f+2     :     0.000427
      f-2     :     0.000623
      f+3     :     0.000383
      f-3     :     0.000471
 24 H s       :     0.637871  s :     0.637871
      pz      :     0.037052  p :     0.068283
      px      :     0.005908
      py      :     0.025322
      dz2     :     0.000650  d :     0.002190
      dxz     :     0.000689
      dyz     :     0.000573
      dx2y2   :     0.000119
      dxy     :     0.000159
 25 H s       :     0.624100  s :     0.624100
      pz      :     0.024622  p :     0.057351
      px      :     0.014218
      py      :     0.018511
      dz2     :     0.000160  d :     0.002123
      dxz     :     0.000238
      dyz     :     0.000508
      dx2y2   :     0.000722
      dxy     :     0.000495
 26 H s       :     0.732178  s :     0.732178
      pz      :     0.007097  p :     0.029048
      px      :     0.016990
      py      :     0.004961
      dz2     :     0.000487  d :     0.002289
      dxz     :     0.000375
      dyz     :     0.000382
      dx2y2   :     0.000566
      dxy     :     0.000479
 27 H s       :     0.501345  s :     0.501345
      pz      :     0.024601  p :     0.057326
      px      :     0.022521
      py      :     0.010203
      dz2     :     0.000553  d :     0.002811
      dxz     :     0.000434
      dyz     :     0.000475
      dx2y2   :     0.000903
      dxy     :     0.000446


                     *******************************
                     * LOEWDIN POPULATION ANALYSIS *
                     *******************************

----------------------
LOEWDIN ATOMIC CHARGES
----------------------
   0 Mo:    1.209461
   1 C :   -0.215680
   2 C :    0.024809
   3 H :   -0.005398
   4 H :   -0.008781
   5 H :   -0.010997
   6 C :   -0.006614
   7 C :   -0.023141
   8 N :   -0.100839
   9 O :   -0.329838
  10 O :   -0.335167
  11 H :   -0.005327
  12 H :   -0.004579
  13 H :   -0.015477
  14 H :   -0.004345
  15 H :   -0.009433
  16 H :   -0.013625
  17 C :   -0.012152
  18 C :   -0.068149
  19 H :   -0.048751
  20 H :   -0.052557
  21 H :    0.013446
  22 H :    0.009456
  23 C :    0.079562
  24 H :   -0.011714
  25 H :   -0.007530
  26 H :   -0.025034
  27 H :   -0.021606

-------------------------------
LOEWDIN REDUCED ORBITAL CHARGES
-------------------------------
  0 Mos       :     1.823675  s :     1.823675
      pz      :     2.078314  p :     6.284353
      px      :     2.107120
      py      :     2.098919
      dz2     :     0.881222  d :     4.115328
      dxz     :     0.766327
      dyz     :     0.890813
      dx2y2   :     0.715759
      dxy     :     0.861206
      f0      :     0.047323  f :     0.519143
      f+1     :     0.048556
      f-1     :     0.055483
      f+2     :     0.019078
      f-2     :     0.109168
      f+3     :     0.117866
      f-3     :     0.121669
      g0      :     0.003561  g :     0.048040
      g+1     :     0.003669
      g-1     :     0.003928
      g+2     :     0.001586
      g-2     :     0.007277
      g+3     :     0.003900
      g-3     :     0.004992
      g+4     :     0.010228
      g-4     :     0.008899
  1 C s       :     2.678867  s :     2.678867
      pz      :     0.838952  p :     2.642548
      px      :     0.912551
      py      :     0.891046
      dz2     :     0.182956  d :     0.856345
      dxz     :     0.208165
      dyz     :     0.165512
      dx2y2   :     0.129677
      dxy     :     0.170037
      f0      :     0.006131  f :     0.037919
      f+1     :     0.007653
      f-1     :     0.004171
      f+2     :     0.005368
      f-2     :     0.006343
      f+3     :     0.004193
      f-3     :     0.004061
  2 C s       :     2.664327  s :     2.664327
      pz      :     0.918329  p :     2.672623
      px      :     0.880426
      py      :     0.873869
      dz2     :     0.098006  d :     0.590006
      dxz     :     0.141465
      dyz     :     0.066056
      dx2y2   :     0.151107
      dxy     :     0.133372
      f0      :     0.004562  f :     0.048235
      f+1     :     0.005438
      f-1     :     0.006773
      f+2     :     0.005434
      f-2     :     0.007212
      f+3     :     0.010565
      f-3     :     0.008251
  3 H s       :     0.703236  s :     0.703236
      pz      :     0.126163  p :     0.273740
      px      :     0.078335
      py      :     0.069242
      dz2     :     0.009887  d :     0.028422
      dxz     :     0.008667
      dyz     :     0.006723
      dx2y2   :     0.001286
      dxy     :     0.001859
  4 H s       :     0.704138  s :     0.704138
      pz      :     0.101830  p :     0.276131
      px      :     0.103843
      py      :     0.070459
      dz2     :     0.006901  d :     0.028512
      dxz     :     0.008030
      dyz     :     0.003455
      dx2y2   :     0.004703
      dxy     :     0.005423
  5 H s       :     0.698728  s :     0.698728
      pz      :     0.078617  p :     0.283661
      px      :     0.087502
      py      :     0.117542
      dz2     :     0.002736  d :     0.028609
      dxz     :     0.002098
      dyz     :     0.007269
      dx2y2   :     0.008448
      dxy     :     0.008057
  6 C s       :     2.656871  s :     2.656871
      pz      :     0.922424  p :     2.592062
      px      :     0.742227
      py      :     0.927412
      dz2     :     0.088580  d :     0.689681
      dxz     :     0.190583
      dyz     :     0.062649
      dx2y2   :     0.142794
      dxy     :     0.205075
      f0      :     0.007350  f :     0.067999
      f+1     :     0.009956
      f-1     :     0.004018
      f+2     :     0.011722
      f-2     :     0.003803
      f+3     :     0.014845
      f-3     :     0.016305
  7 C s       :     2.663360  s :     2.663360
      pz      :     0.927079  p :     2.596659
      px      :     0.924500
      py      :     0.745080
      dz2     :     0.074498  d :     0.697509
      dxz     :     0.073700
      dyz     :     0.207478
      dx2y2   :     0.151763
      dxy     :     0.190071
      f0      :     0.008236  f :     0.065613
      f+1     :     0.001729
      f-1     :     0.010860
      f+2     :     0.011700
      f-2     :     0.003595
      f+3     :     0.015839
      f-3     :     0.013654
  8 N s       :     3.072484  s :     3.072484
      pz      :     1.121649  p :     3.362204
      px      :     1.117292
      py      :     1.123263
      dz2     :     0.084037  d :     0.651424
      dxz     :     0.102731
      dyz     :     0.105905
      dx2y2   :     0.175576
      dxy     :     0.183174
      f0      :     0.001134  f :     0.014727
      f+1     :     0.001761
      f-1     :     0.001729
      f+2     :     0.000514
      f-2     :     0.002188
      f+3     :     0.003405
      f-3     :     0.003997
  9 O s       :     3.329413  s :     3.329413
      pz      :     1.586918  p :     4.511265
      px      :     1.567680
      py      :     1.356667
      dz2     :     0.048575  d :     0.485089
      dxz     :     0.027285
      dyz     :     0.120456
      dx2y2   :     0.134172
      dxy     :     0.154601
      f0      :     0.000429  f :     0.004071
      f+1     :     0.000142
      f-1     :     0.000534
      f+2     :     0.000638
      f-2     :     0.000244
      f+3     :     0.001103
      f-3     :     0.000981
 10 O s       :     3.301437  s :     3.301437
      pz      :     1.571560  p :     4.532754
      px      :     1.368678
      py      :     1.592516
      dz2     :     0.054489  d :     0.496805
      dxz     :     0.139511
      dyz     :     0.021860
      dx2y2   :     0.121379
      dxy     :     0.159565
      f0      :     0.000406  f :     0.004171
      f+1     :     0.000628
      f-1     :     0.000162
      f+2     :     0.000643
      f-2     :     0.000108
      f+3     :     0.000981
      f-3     :     0.001244
 11 H s       :     0.712772  s :     0.712772
      pz      :     0.107623  p :     0.264632
      px      :     0.056089
      py      :     0.100920
      dz2     :     0.007723  d :     0.027922
      dxz     :     0.004537
      dyz     :     0.007052
      dx2y2   :     0.004640
      dxy     :     0.003971
 12 H s       :     0.712298  s :     0.712298
      pz      :     0.125970  p :     0.264515
      px      :     0.056282
      py      :     0.082264
      dz2     :     0.009063  d :     0.027766
      dxz     :     0.006955
      dyz     :     0.008026
      dx2y2   :     0.002109
      dxy     :     0.001614
 13 H s       :     0.697389  s :     0.697389
      pz      :     0.079629  p :     0.289901
      px      :     0.068933
      py      :     0.141339
      dz2     :     0.003225  d :     0.028187
      dxz     :     0.001407
      dyz     :     0.007916
      dx2y2   :     0.007510
      dxy     :     0.008129
 14 H s       :     0.709637  s :     0.709637
      pz      :     0.087233  p :     0.266507
      px      :     0.119853
      py      :     0.059420
      dz2     :     0.004670  d :     0.028202
      dxz     :     0.007677
      dyz     :     0.002282
      dx2y2   :     0.006813
      dxy     :     0.006759
 15 H s       :     0.710575  s :     0.710575
      pz      :     0.125710  p :     0.270894
      px      :     0.081147
      py      :     0.064038
      dz2     :     0.008569  d :     0.027964
      dxz     :     0.008045
      dyz     :     0.007979
      dx2y2   :     0.001938
      dxy     :     0.001434
 16 H s       :     0.707951  s :     0.707951
      pz      :     0.099780  p :     0.277522
      px      :     0.119367
      py      :     0.058375
      dz2     :     0.006571  d :     0.028153
      dxz     :     0.007603
      dyz     :     0.003175
      dx2y2   :     0.005687
      dxy     :     0.005117
 17 C s       :     2.699801  s :     2.699801
      pz      :     0.902014  p :     2.696839
      px      :     0.911785
      py      :     0.883040
      dz2     :     0.102832  d :     0.588341
      dxz     :     0.159478
      dyz     :     0.145692
      dx2y2   :     0.081094
      dxy     :     0.099245
      f0      :     0.004714  f :     0.027171
      f+1     :     0.003948
      f-1     :     0.004356
      f+2     :     0.003924
      f-2     :     0.004955
      f+3     :     0.002248
      f-3     :     0.003025
 18 C s       :     2.632424  s :     2.632424
      pz      :     0.858305  p :     2.633948
      px      :     0.896520
      py      :     0.879124
      dz2     :     0.209351  d :     0.764552
      dxz     :     0.155673
      dyz     :     0.155860
      dx2y2   :     0.157275
      dxy     :     0.086392
      f0      :     0.006384  f :     0.037225
      f+1     :     0.006677
      f-1     :     0.007223
      f+2     :     0.004482
      f-2     :     0.005511
      f+3     :     0.004626
      f-3     :     0.002322
 19 H s       :     0.709905  s :     0.709905
      pz      :     0.091693  p :     0.307980
      px      :     0.112961
      py      :     0.103326
      dz2     :     0.004410  d :     0.030866
      dxz     :     0.006627
      dyz     :     0.005252
      dx2y2   :     0.007518
      dxy     :     0.007059
 20 H s       :     0.717997  s :     0.717997
      pz      :     0.103396  p :     0.304115
      px      :     0.103169
      py      :     0.097550
      dz2     :     0.007172  d :     0.030445
      dxz     :     0.007698
      dyz     :     0.005889
      dx2y2   :     0.004627
      dxy     :     0.005059
 21 H s       :     0.677707  s :     0.677707
      pz      :     0.079748  p :     0.278165
      px      :     0.077240
      py      :     0.121177
      dz2     :     0.003091  d :     0.030682
      dxz     :     0.000828
      dyz     :     0.008990
      dx2y2   :     0.009383
      dxy     :     0.008391
 22 H s       :     0.674036  s :     0.674036
      pz      :     0.084391  p :     0.285689
      px      :     0.127768
      py      :     0.073531
      dz2     :     0.003546  d :     0.030819
      dxz     :     0.009956
      dyz     :     0.000358
      dx2y2   :     0.008464
      dxy     :     0.008494
 23 C s       :     2.650168  s :     2.650168
      pz      :     0.909123  p :     2.714773
      px      :     0.891581
      py      :     0.914069
      dz2     :     0.113767  d :     0.524930
      dxz     :     0.097682
      dyz     :     0.079440
      dx2y2   :     0.070734
      dxy     :     0.163307
      f0      :     0.003559  f :     0.030567
      f+1     :     0.004855
      f-1     :     0.003889
      f+2     :     0.004268
      f-2     :     0.004802
      f+3     :     0.005548
      f-3     :     0.003645
 24 H s       :     0.702631  s :     0.702631
      pz      :     0.119494  p :     0.279990
      px      :     0.073970
      py      :     0.086526
      dz2     :     0.009722  d :     0.029093
      dxz     :     0.007562
      dyz     :     0.008294
      dx2y2   :     0.001642
      dxy     :     0.001873
 25 H s       :     0.700528  s :     0.700528
      pz      :     0.076766  p :     0.278249
      px      :     0.086313
      py      :     0.115170
      dz2     :     0.002653  d :     0.028752
      dxz     :     0.002890
      dyz     :     0.006878
      dx2y2   :     0.008284
      dxy     :     0.008046
 26 H s       :     0.695011  s :     0.695011
      pz      :     0.097327  p :     0.300581
      px      :     0.093525
      py      :     0.109729
      dz2     :     0.005649  d :     0.029441
      dxz     :     0.005132
      dyz     :     0.005263
      dx2y2   :     0.006836
      dxy     :     0.006560
 27 H s       :     0.689412  s :     0.689412
      pz      :     0.086299  p :     0.300722
      px      :     0.104496
      py      :     0.109927
      dz2     :     0.005230  d :     0.031472
      dxz     :     0.005390
      dyz     :     0.006467
      dx2y2   :     0.007754
      dxy     :     0.006631


                      *****************************
                      * MAYER POPULATION ANALYSIS *
                      *****************************

  NA   - Mulliken gross atomic population
  ZA   - Total nuclear charge
  QA   - Mulliken gross atomic charge
  VA   - Mayer's total valence
  BVA  - Mayer's bonded valence
  FA   - Mayer's free valence

  ATOM       NA         ZA         QA         VA         BVA        FA
  0 Mo    13.5504    14.0000     0.4496     6.1542     6.1542     0.0000
  1 C      5.6098     6.0000     0.3902     2.4480     2.4480     0.0000
  2 C      6.6803     6.0000    -0.6803     3.4090     3.4090     0.0000
  3 H      0.7366     1.0000     0.2634     1.0035     1.0035     0.0000
  4 H      0.7394     1.0000     0.2606     1.0177     1.0177     0.0000
  5 H      0.7390     1.0000     0.2610     1.0046     1.0046     0.0000
  6 C      6.6692     6.0000    -0.6692     3.7327     3.7327    -0.0000
  7 C      6.5892     6.0000    -0.5892     3.7686     3.7686     0.0000
  8 N      7.5184     7.0000    -0.5184     1.9268     1.9268     0.0000
  9 O      8.5291     8.0000    -0.5291     1.6463     1.6463     0.0000
 10 O      8.3701     8.0000    -0.3701     1.4930     1.4930    -0.0000
 11 H      0.7838     1.0000     0.2162     1.0171     1.0171    -0.0000
 12 H      0.7674     1.0000     0.2326     1.0067     1.0067    -0.0000
 13 H      0.7821     1.0000     0.2179     1.0125     1.0125     0.0000
 14 H      0.7937     1.0000     0.2063     1.0288     1.0288    -0.0000
 15 H      0.7727     1.0000     0.2273     0.9591     0.9591     0.0000
 16 H      0.7842     1.0000     0.2158     0.9232     0.9232     0.0000
 17 C      6.4976     6.0000    -0.4976     3.4640     3.4640    -0.0000
 18 C      6.2454     6.0000    -0.2454     2.8901     2.8901    -0.0000
 19 H      0.7189     1.0000     0.2811     1.1429     1.1429     0.0000
 20 H      0.7439     1.0000     0.2561     1.1370     1.1370    -0.0000
 21 H      0.6608     1.0000     0.3392     0.9949     0.9949    -0.0000
 22 H      0.6495     1.0000     0.3505     0.9852     0.9852    -0.0000
 23 C      7.3515     6.0000    -1.3515     3.6440     3.6440    -0.0000
 24 H      0.7083     1.0000     0.2917     1.0472     1.0472    -0.0000
 25 H      0.6836     1.0000     0.3164     1.0127     1.0127    -0.0000
 26 H      0.7635     1.0000     0.2365     0.9893     0.9893    -0.0000
 27 H      0.5615     1.0000     0.4385     0.8410     0.8410    -0.0000

  Mayer bond orders larger than 0.100000
B(  0-Mo,  1-C ) :   1.0325 B(  0-Mo,  2-C ) :   0.1438 B(  0-Mo,  8-N ) :   1.4289 
B(  0-Mo,  9-O ) :   0.8979 B(  0-Mo, 10-O ) :   0.9381 B(  0-Mo, 17-C ) :   1.0879 
B(  0-Mo, 18-C ) :   0.1533 B(  0-Mo, 23-C ) :   0.1266 B(  1-C , 10-O ) :  -0.1663 
B(  1-C , 18-C ) :   0.5025 B(  1-C , 23-C ) :   0.5310 B(  1-C , 26-H ) :  -0.1164 
B(  1-C , 27-H ) :   0.8928 B(  2-C ,  3-H ) :   0.9512 B(  2-C ,  4-H ) :   0.9452 
B(  2-C ,  5-H ) :   0.9431 B(  2-C ,  8-N ) :   0.4354 B(  6-C , 10-O ) :   0.8245 
B(  6-C , 11-H ) :   0.9806 B(  6-C , 12-H ) :   0.9613 B(  6-C , 13-H ) :   0.9594 
B(  7-C ,  9-O ) :   0.8448 B(  7-C , 14-H ) :   0.9930 B(  7-C , 15-H ) :   0.9510 
B(  7-C , 16-H ) :   0.9242 B( 10-O , 17-C ) :  -0.1777 B( 17-C , 18-C ) :   0.5786 
B( 17-C , 19-H ) :   1.0241 B( 17-C , 20-H ) :   1.0358 B( 18-C , 21-H ) :   0.9526 
B( 18-C , 22-H ) :   0.9626 B( 23-C , 24-H ) :   0.9656 B( 23-C , 25-H ) :   0.9918 
B( 23-C , 26-H ) :   0.9880 

-------
TIMINGS
-------

Total SCF time: 0 days 0 hours 7 min 16 sec 

Total time                  ....     436.679 sec
Sum of individual times     ....     435.459 sec  ( 99.7%)

Fock matrix formation       ....     428.820 sec  ( 98.2%)
  XC integration            ....       9.366 sec  (  2.2% of F)
    Basis function eval.    ....       0.981 sec  ( 10.5% of XC)
    Density eval.           ....       3.152 sec  ( 33.7% of XC)
    XC-Functional eval.     ....       0.122 sec  (  1.3% of XC)
    XC-Potential eval.      ....       4.232 sec  ( 45.2% of XC)
Diagonalization             ....       2.084 sec  (  0.5%)
Density matrix formation    ....       0.078 sec  (  0.0%)
Population analysis         ....       0.102 sec  (  0.0%)
Initial guess               ....       2.506 sec  (  0.6%)
Orbital Transformation      ....       0.000 sec  (  0.0%)
Orbital Orthonormalization  ....       0.000 sec  (  0.0%)
DIIS solution               ....       1.093 sec  (  0.3%)
Grid generation             ....       0.777 sec  (  0.2%)

-------------------------   --------------------
FINAL SINGLE POINT ENERGY      -550.285851838553
-------------------------   --------------------


                            ***************************************
                            *     ORCA property calculations      *
                            ***************************************

                                    ---------------------
                                    Active property flags
                                    ---------------------
   (+) Dipole Moment


------------------------------------------------------------------------------
                       ORCA ELECTRIC PROPERTIES CALCULATION
------------------------------------------------------------------------------

Dipole Moment Calculation                       ... on
Quadrupole Moment Calculation                   ... off
Polarizability Calculation                      ... off
GBWName                                         ... TMB10_C1.gbw
Electron density file                           ... TMB10_C1.scfp
The origin for moment calculation is the CENTER OF MASS  = ( 0.053278, -0.004064  0.008888)

-------------
DIPOLE MOMENT
-------------
                                X             Y             Z
Electronic contribution:     11.00872       0.84953       4.63944
Nuclear contribution   :    -12.16779      -0.65832      -4.35638
                        -----------------------------------------
Total Dipole Moment    :     -1.15907       0.19122       0.28306
                        -----------------------------------------
Magnitude (a.u.)       :      1.20836
Magnitude (Debye)      :      3.07141



--------------------
Rotational spectrum 
--------------------
 
Rotational constants in cm-1:     0.031161     0.027931     0.019091 
Rotational constants in MHz :   934.171856   837.337056   572.342467 

 Dipole components along the rotational axes: 
x,y,z [a.u.] :    -1.155459    -0.220951     0.276099 
x,y,z [Debye]:    -2.936943    -0.561612     0.701788 

 

Timings for individual modules:

Sum of individual times         ...      440.879 sec (=   7.348 min)
GTO integral calculation        ...        3.732 sec (=   0.062 min)   0.8 %
SCF iterations                  ...      437.147 sec (=   7.286 min)  99.2 %
                             ****ORCA TERMINATED NORMALLY****
TOTAL RUN TIME: 0 days 0 hours 7 minutes 21 seconds 588 msec
