
                                 *****************
                                 * O   R   C   A *
                                 *****************

           --- An Ab Initio, DFT and Semiempirical electronic structure package ---

                  #######################################################
                  #                        -***-                        #
                  #          Department of theory and spectroscopy      #
                  #               Directorship: Frank Neese             #
                  #        Max Planck Institute fuer Kohlenforschung    #
                  #                Kaiser Wilhelm Platz 1               #
                  #                 D-45470 Muelheim/Ruhr               #
                  #                      Germany                        #
                  #                                                     #
                  #                  All rights reserved                #
                  #                        -***-                        #
                  #######################################################


                         Program Version 4.2.0 -  RELEASE  -


 With contributions from (in alphabetic order):
   Daniel Aravena         : Magnetic Suceptibility
   Michael Atanasov       : Ab Initio Ligand Field Theory (pilot matlab implementation)
   Alexander A. Auer      : GIAO ZORA, VPT2
   Ute Becker             : Parallelization
   Giovanni Bistoni       : ED, misc. LED, open-shell LED, HFLED
   Martin Brehm           : Molecular dynamics
   Dmytro Bykov           : SCF Hessian
   Vijay G. Chilkuri      : MRCI spin determinant printing, contributions to CSF-ICE
   Dipayan Datta          : RHF DLPNO-CCSD density
   Achintya Kumar Dutta   : EOM-CC, STEOM-CC
   Dmitry Ganyushin       : Spin-Orbit,Spin-Spin,Magnetic field MRCI
   Miquel Garcia          : C-PCM Hessian, Gaussian charge scheme
   Yang Guo               : DLPNO-NEVPT2, CIM, IAO-localization
   Andreas Hansen         : Spin unrestricted coupled pair/coupled cluster methods
   Benjamin Helmich-Paris : CASSCF linear response (MC-RPA)
   Lee Huntington         : MR-EOM, pCC
   Robert Izsak           : Overlap fitted RIJCOSX, COSX-SCS-MP3, EOM
   Christian Kollmar      : KDIIS, OOCD, Brueckner-CCSD(T), CCSD density
   Simone Kossmann        : Meta GGA functionals, TD-DFT gradient, OOMP2, MP2 Hessian
   Martin Krupicka        : AUTO-CI
   Lucas Lang             : DCDCAS
   Dagmar Lenk            : GEPOL surface, SMD
   Dimitrios Liakos       : Extrapolation schemes; Compound Job, initial MDCI parallelization
   Dimitrios Manganas     : Further ROCIS development; embedding schemes
   Dimitrios Pantazis     : SARC Basis sets
   Taras Petrenko         : DFT Hessian,TD-DFT gradient, ASA, ECA, R-Raman, ABS, FL, XAS/XES, NRVS
   Peter Pinski           : DLPNO-MP2, DLPNO-MP2 Gradient
   Christoph Reimann      : Effective Core Potentials
   Marius Retegan         : Local ZFS, SOC
   Christoph Riplinger    : Optimizer, TS searches, QM/MM, DLPNO-CCSD(T), (RO)-DLPNO pert. Triples
   Tobias Risthaus        : Range-separated hybrids, TD-DFT gradient, RPA, STAB
   Michael Roemelt        : Original ROCIS implementation
   Masaaki Saitow         : Open-shell DLPNO-CCSD energy and density
   Barbara Sandhoefer     : DKH picture change effects
   Avijit Sen             : IP-ROCIS
   Kantharuban Sivalingam : CASSCF convergence, NEVPT2, FIC-MRCI
   Bernardo de Souza      : ESD, SOC TD-DFT
   Georgi Stoychev        : AutoAux, RI-MP2 NMR
   Willem Van den Heuvel  : Paramagnetic NMR
   Boris Wezisla          : Elementary symmetry handling
   Frank Wennmohs         : Technical directorship


 We gratefully acknowledge several colleagues who have allowed us to
 interface, adapt or use parts of their codes:
   Stefan Grimme, W. Hujo, H. Kruse,             : VdW corrections, initial TS optimization,
                  C. Bannwarth                     DFT functionals, gCP, sTDA/sTD-DF
   Ed Valeev, F. Pavosevic, A. Kumar             : LibInt (2-el integral package), F12 methods
   Garnet Chan, S. Sharma, J. Yang, R. Olivares  : DMRG
   Ulf Ekstrom                                   : XCFun DFT Library
   Mihaly Kallay                                 : mrcc  (arbitrary order and MRCC methods)
   Andreas Klamt, Michael Diedenhofen            : otool_cosmo (COSMO solvation model)
   Jiri Pittner, Ondrej Demel                    : Mk-CCSD
   Frank Weinhold                                : gennbo (NPA and NBO analysis)
   Christopher J. Cramer and Donald G. Truhlar   : smd solvation model
   Lars Goerigk                                  : TD-DFT with DH, B97 family of functionals
   V. Asgeirsson, H. Jonsson                     : NEB implementation
   FAccTs GmbH                                   : IRC, NEB, NEB-TS, Multilevel, MM, QM/MM, CI optimization
   S Lehtola, MJT Oliveira, MAL Marques          : LibXC Library


 Your calculation uses the libint2 library for the computation of 2-el integrals
 For citations please refer to: http://libint.valeyev.net

 Your ORCA version has been built with support for libXC version: 4.2.3
 For citations please refer to: https://tddft.org/programs/libxc/

 This ORCA versions uses:
   CBLAS   interface :  Fast vector & matrix operations
   LAPACKE interface :  Fast linear algebra routines
   SCALAPACK package :  Parallel linear algebra routines


Your calculation utilizes the DFT-NL dispersion correction.
Cite in your paper:
Vydrov, O. A.; Van Voorhis, T. J. Chem. Phys. 2010, 133, 244103
Hujo, W.; Grimme, S. J. Chem. Theory Comput. 2011, 7, 3866 
   

----- Orbital basis set information -----
Your calculation utilizes the basis: def2-TZVPPD
   F. Weigend and R. Ahlrichs, Phys. Chem. Chem. Phys. 7, 3297 (2005).
   D. Rappoport and F. Furche, J. Chem. Phys. 133 134105 (2010).

----- AuxJK basis set information -----
Your calculation utilizes the auxiliary basis: def2/JK
   H-Ba, Hf-Rn: F. Weigend, J. Comput. Chem. 29, 167 (2008).

cite the ECPs for Au [Def2-ECP] as follows:
Ce-Yb(ecp-28): M. Dolg, H. Stoll, H.Preuss, J. Chem. Phys., 1989, 90, 1730-1734.
Y-Cd(ecp-28), Hf-Hg(ecp-46): D. Andrae,U. Haeussermann, M. Dolg, H. Stoll, H. Preuss, Theor. Chim. Acta, 1990, 77, 123-141.
In-Sb(ecp-28), Tl-Bi(ecp-46): B. Metz, H. Stoll, M. Dolg, J. Chem. Phys., 2000, 113, 2563-2569.
Te-Xe(ecp-28), Po-Rn(ecp-46): K. A. Peterson, D. Figgen, E. Goll, H. Stoll, M. Dolg, J. Chem. Phys., 2003, 119, 11113-11123.
Rb(ecp-28), Cs(ecp-46): T. Leininger, A. Nicklass, W. Kuechle, H. Stoll, M. Dolg, A. Bergner, Chem. Phys. Lett., 1996, 255, 274-280.
Sr(ecp-28), Ba(ecp-46): M. Kaupp, P. V. Schleyer, H. Stoll and H. Preuss, J. Chem. Phys., 1991, 94, 1360-1366.
La(ecp-46): M. Dolg, H. Stoll, A. Savin, H. Preuss, Theor. Chim. Acta, 1989, 75, 173-194.
Lu(ecp-28): X. Cao, M. Dolg, J. Chem. Phys., 2001, 115, 7348-7355.

ECP parameters for Au [Def2-ECP] have been obtained from:
TURBOMOLE (7.0.2)

================================================================================
                                        WARNINGS
                       Please study these warnings very carefully!
================================================================================


INFO   : the flag for use of LIBINT has been found!

================================================================================
                                       INPUT FILE
================================================================================
NAME = TMB29_C2.in
|  1> #
|  2> # TMB29_C2 wB97M-V/Def2-TZVPPD
|  3> #
|  4> ! wb97m-v def2-tzvppd def2/jk grid4 nofinalgrid
|  5> 
|  6> *xyz 1 1
|  7> C        0.315194   -1.265840   -0.205097 
|  8> C        1.442343   -0.626838    0.044790 
|  9> C        0.309905   -2.700146   -0.639207 
| 10> H        1.304587   -3.137496   -0.733589 
| 11> H       -0.263876   -3.299051    0.071387 
| 12> H       -0.202915   -2.796953   -1.598442 
| 13> C        1.798588    0.767906    0.516696 
| 14> O        3.282693    0.709723    0.495405 
| 15> C        3.659486   -0.471899    0.173285 
| 16> O        2.736849   -1.295199   -0.102354 
| 17> C        1.344136    1.838147   -0.506262 
| 18> O        0.287215    2.374668   -0.320274 
| 19> C        2.219880    2.103298   -1.689301 
| 20> H        2.470349    1.173144   -2.206730 
| 21> H        1.702341    2.771806   -2.372494 
| 22> H        3.157528    2.564787   -1.369834 
| 23> C        5.078697   -0.839761    0.144564 
| 24> H        5.213504   -1.795905   -0.353509 
| 25> H        5.652959   -0.054437   -0.347617 
| 26> H        5.438400   -0.910855    1.175413 
| 27> C        1.364152    1.101522    1.920814 
| 28> H        1.754676    2.072052    2.227431 
| 29> H        0.275994    1.149047    1.931402 
| 30> H        1.690154    0.330993    2.618895 
| 31> Au      -1.496985   -0.316099   -0.013075 
| 32> P       -3.546234    0.682452    0.150815 
| 33> H       -3.831804    1.712524   -0.762172 
| 34> H       -4.687337   -0.122280   -0.012331 
| 35> H       -3.867595    1.325764    1.359005 
| 36> *
| 37> 
| 38> %maxcore 5000
| 39> 
| 40> %pal
| 41> nprocs = 24
| 42> end
| 43> 
| 44> 
| 45>                          ****END OF INPUT****
================================================================================

                       ****************************
                       * Single Point Calculation *
                       ****************************

---------------------------------
CARTESIAN COORDINATES (ANGSTROEM)
---------------------------------
  C      0.315194   -1.265840   -0.205097
  C      1.442343   -0.626838    0.044790
  C      0.309905   -2.700146   -0.639207
  H      1.304587   -3.137496   -0.733589
  H     -0.263876   -3.299051    0.071387
  H     -0.202915   -2.796953   -1.598442
  C      1.798588    0.767906    0.516696
  O      3.282693    0.709723    0.495405
  C      3.659486   -0.471899    0.173285
  O      2.736849   -1.295199   -0.102354
  C      1.344136    1.838147   -0.506262
  O      0.287215    2.374668   -0.320274
  C      2.219880    2.103298   -1.689301
  H      2.470349    1.173144   -2.206730
  H      1.702341    2.771806   -2.372494
  H      3.157528    2.564787   -1.369834
  C      5.078697   -0.839761    0.144564
  H      5.213504   -1.795905   -0.353509
  H      5.652959   -0.054437   -0.347617
  H      5.438400   -0.910855    1.175413
  C      1.364152    1.101522    1.920814
  H      1.754676    2.072052    2.227431
  H      0.275994    1.149047    1.931402
  H      1.690154    0.330993    2.618895
  Au    -1.496985   -0.316099   -0.013075
  P     -3.546234    0.682452    0.150815
  H     -3.831804    1.712524   -0.762172
  H     -4.687337   -0.122280   -0.012331
  H     -3.867595    1.325764    1.359005

----------------------------
CARTESIAN COORDINATES (A.U.)
----------------------------
  NO LB      ZA    FRAG     MASS         X           Y           Z
   0 C     6.0000    0    12.011    0.595630   -2.392091   -0.387577
   1 C     6.0000    0    12.011    2.725633   -1.184552    0.084641
   2 C     6.0000    0    12.011    0.585636   -5.102536   -1.207926
   3 H     1.0000    0     1.008    2.465312   -5.929008   -1.386282
   4 H     1.0000    0     1.008   -0.498653   -6.234303    0.134902
   5 H     1.0000    0     1.008   -0.383454   -5.285475   -3.020618
   6 C     6.0000    0    12.011    3.398839    1.451132    0.976414
   7 O     8.0000    0    15.999    6.203391    1.341182    0.936180
   8 C     6.0000    0    12.011    6.915426   -0.891760    0.327461
   9 O     8.0000    0    15.999    5.171895   -2.447571   -0.193421
  10 C     6.0000    0    12.011    2.540049    3.473594   -0.956697
  11 O     8.0000    0    15.999    0.542758    4.487472   -0.605230
  12 C     6.0000    0    12.011    4.194965    3.974657   -3.192316
  13 H     1.0000    0     1.008    4.668283    2.216921   -4.170115
  14 H     1.0000    0     1.008    3.216958    5.237954   -4.483364
  15 H     1.0000    0     1.008    5.966863    4.846745   -2.588611
  16 C     6.0000    0    12.011    9.597346   -1.586918    0.273186
  17 H     1.0000    0     1.008    9.852095   -3.393769   -0.668035
  18 H     1.0000    0     1.008   10.682544   -0.102871   -0.656901
  19 H     1.0000    0     1.008   10.277087   -1.721266    2.221209
  20 C     6.0000    0    12.011    2.577874    2.081575    3.629812
  21 H     1.0000    0     1.008    3.315857    3.915611    4.209235
  22 H     1.0000    0     1.008    0.521553    2.171384    3.649821
  23 H     1.0000    0     1.008    3.193928    0.625486    4.948994
  24 Au   19.0000*   0   196.966   -2.828892   -0.597341   -0.024708
  25 P    15.0000    0    30.974   -6.701411    1.289647    0.284999
  26 H     1.0000    0     1.008   -7.241060    3.236201   -1.440296
  27 H     1.0000    0     1.008   -8.857783   -0.231076   -0.023302
  28 H     1.0000    0     1.008   -7.308695    2.505331    2.568147
* core charge reduced due to ECP

--------------------------------
INTERNAL COORDINATES (ANGSTROEM)
--------------------------------
 C      0   0   0     0.000000000000     0.00000000     0.00000000
 C      1   0   0     1.319557477708     0.00000000     0.00000000
 C      1   2   0     1.498570374476   121.42356064     0.00000000
 H      3   1   2     1.090676517373   113.93141125   359.33812662
 H      3   1   2     1.092179320360   109.76863375   121.09587170
 H      3   1   2     1.092010866646   109.93578030   237.36249641
 C      2   1   3     1.514898213873   134.88683643   181.64046324
 O      7   2   1     1.485397663656   101.21131743   182.01554635
 C      8   7   2     1.281391747333   109.48240150   356.47560100
 O      9   8   7     1.266909145160   116.09114853     2.70262639
 C      7   2   1     1.548672169360   111.19150052   296.63975089
 O     11   7   2     1.199803450498   117.71897151    95.88998994
 C     11   7   2     1.495598168579   118.24135652   278.15640862
 H     13  11   7     1.093459626012   110.95451297    51.53647774
 H     13  11   7     1.086969290198   109.11192705   172.34243511
 H     13  11   7     1.092801460977   110.24518204   292.53634299
 C      9   8   7     1.466392583658   121.38874561   183.37606196
 H     17   9   8     1.086490215931   110.47681023   192.40966261
 H     17   9   8     1.090299393002   109.74925467   315.37660549
 H     17   9   8     1.094116203082   108.42302251    72.40245038
 C      7   2   1     1.507176708776   115.22794425    65.73534437
 H     21   7   2     1.090161208338   110.84436184   173.42080737
 H     21   7   2     1.089246787617   107.85868679   291.99202114
 H     21   7   2     1.089637245328   110.73719138    51.03199996
 Au     1   2   3     2.054963051640   120.78152007   180.13180219
 P     25   1   2     2.285472707276   177.91121135   159.42969449
 H     26  25   1     1.405753823489   117.11149707   267.01207168
 H     26  25   1     1.405818717242   117.99407731    27.02120061
 H     26  25   1     1.406003662074   117.80523906   147.40651696

---------------------------
INTERNAL COORDINATES (A.U.)
---------------------------
 C      0   0   0     0.000000000000     0.00000000     0.00000000
 C      1   0   0     2.493602250835     0.00000000     0.00000000
 C      1   2   0     2.831887600167   121.42356064     0.00000000
 H      3   1   2     2.061079918533   113.93141125   359.33812662
 H      3   1   2     2.063919804613   109.76863375   121.09587170
 H      3   1   2     2.063601473228   109.93578030   237.36249641
 C      2   1   3     2.862742744987   134.88683643   181.64046324
 O      7   2   1     2.806994784277   101.21131743   182.01554635
 C      8   7   2     2.421479472726   109.48240150   356.47560100
 O      9   8   7     2.394111320913   116.09114853     2.70262639
 C      7   2   1     2.926566271315   111.19150052   296.63975089
 O     11   7   2     2.267299935974   117.71897151    95.88998994
 C     11   7   2     2.826270945009   118.24135652   278.15640862
 H     13  11   7     2.066339231662   110.95451297    51.53647774
 H     13  11   7     2.054074274457   109.11192705   172.34243511
 H     13  11   7     2.065095479996   110.24518204   292.53634299
 C      9   8   7     2.771080387926   121.38874561   183.37606196
 H     17   9   8     2.053168955295   110.47681023   192.40966261
 H     17   9   8     2.060367256755   109.74925467   315.37660549
 H     17   9   8     2.067579982510   108.42302251    72.40245038
 C      7   2   1     2.848151215011   115.22794425    65.73534437
 H     21   7   2     2.060106125584   110.84436184   173.42080737
 H     21   7   2     2.058378120849   107.85868679   291.99202114
 H     21   7   2     2.059115978990   110.73719138    51.03199996
 Au     1   2   3     3.883317382927   120.78152007   180.13180219
 P     25   1   2     4.318917503303   177.91121135   159.42969449
 H     26  25   1     2.656489738106   117.11149707   267.01207168
 H     26  25   1     2.656612369529   117.99407731    27.02120061
 H     26  25   1     2.656961864610   117.80523906   147.40651696

---------------------
BASIS SET INFORMATION
---------------------
There are 5 groups of distinct atoms

 Group   1 Type C   : 12s6p3d1f contracted to 6s3p3d1f pattern {621111/411/111/1}
 Group   2 Type H   : 5s3p1d contracted to 3s3p1d pattern {311/111/1}
 Group   3 Type O   : 12s7p3d1f contracted to 6s4p3d1f pattern {621111/4111/111/1}
 Group   4 Type Au  : 8s8p6d2f1g contracted to 6s5p3d2f1g pattern {311111/41111/411/11/1}
 Group   5 Type P   : 15s9p4d1f contracted to 6s5p4d1f pattern {732111/51111/1111/1}

Atom   0C    basis set group =>   1
Atom   1C    basis set group =>   1
Atom   2C    basis set group =>   1
Atom   3H    basis set group =>   2
Atom   4H    basis set group =>   2
Atom   5H    basis set group =>   2
Atom   6C    basis set group =>   1
Atom   7O    basis set group =>   3
Atom   8C    basis set group =>   1
Atom   9O    basis set group =>   3
Atom  10C    basis set group =>   1
Atom  11O    basis set group =>   3
Atom  12C    basis set group =>   1
Atom  13H    basis set group =>   2
Atom  14H    basis set group =>   2
Atom  15H    basis set group =>   2
Atom  16C    basis set group =>   1
Atom  17H    basis set group =>   2
Atom  18H    basis set group =>   2
Atom  19H    basis set group =>   2
Atom  20C    basis set group =>   1
Atom  21H    basis set group =>   2
Atom  22H    basis set group =>   2
Atom  23H    basis set group =>   2
Atom  24Au   basis set group =>   4
Atom  25P    basis set group =>   5
Atom  26H    basis set group =>   2
Atom  27H    basis set group =>   2
Atom  28H    basis set group =>   2
----------------------------------
AUXILIARY/JK BASIS SET INFORMATION
----------------------------------
There are 5 groups of distinct atoms

 Group   1 Type C   : 14s10p6d2f1g contracted to 10s8p5d1f1g pattern {5111111111/31111111/21111/2/1}
 Group   2 Type H   : 4s2p2d contracted to 2s2p2d pattern {31/11/11}
 Group   3 Type O   : 14s10p6d2f1g contracted to 10s8p4d2f1g pattern {5111111111/31111111/3111/11/1}
 Group   4 Type Au  : 13s12p11d9f5g3h2i contracted to 13s11p10d8f4g3h2i pattern {1111111111111/21111111111/2111111111/21111111/2111/111/11}
 Group   5 Type P   : 16s12p10d4f1g contracted to 13s11p9d4f1g pattern {4111111111111/21111111111/211111111/1111/1}

Atom   0C    basis set group =>   1
Atom   1C    basis set group =>   1
Atom   2C    basis set group =>   1
Atom   3H    basis set group =>   2
Atom   4H    basis set group =>   2
Atom   5H    basis set group =>   2
Atom   6C    basis set group =>   1
Atom   7O    basis set group =>   3
Atom   8C    basis set group =>   1
Atom   9O    basis set group =>   3
Atom  10C    basis set group =>   1
Atom  11O    basis set group =>   3
Atom  12C    basis set group =>   1
Atom  13H    basis set group =>   2
Atom  14H    basis set group =>   2
Atom  15H    basis set group =>   2
Atom  16C    basis set group =>   1
Atom  17H    basis set group =>   2
Atom  18H    basis set group =>   2
Atom  19H    basis set group =>   2
Atom  20C    basis set group =>   1
Atom  21H    basis set group =>   2
Atom  22H    basis set group =>   2
Atom  23H    basis set group =>   2
Atom  24Au   basis set group =>   4
Atom  25P    basis set group =>   5
Atom  26H    basis set group =>   2
Atom  27H    basis set group =>   2
Atom  28H    basis set group =>   2
-------------------------
ECP PARAMETER INFORMATION
-------------------------

 Group 1, Type Au ECP Def2-ECP (replacing 60 core electrons, lmax=3)

Atom  24Au   ECP group =>   1



           ************************************************************
           *        Program running with 24 parallel MPI-processes    *
           *              working on a common directory               *
           ************************************************************
------------------------------------------------------------------------------
                           ORCA GTO INTEGRAL CALCULATION
------------------------------------------------------------------------------

                         BASIS SET STATISTICS AND STARTUP INFO

 # of primitive gaussian shells          ...  456
 # of primitive gaussian functions       ... 1072
 # of contracted shells                  ...  297
 # of contracted basis functions         ...  815
 Highest angular momentum                ...    4
 Maximum contraction depth               ...    7
 Integral package used                   ... LIBINT
 Integral threshhold            Thresh   ...  1.000e-10
 Primitive cut-off              TCut     ...  1.000e-11


------------------------------ INTEGRAL EVALUATION ----------------------------


 * One electron integrals 

   ECP integrals                         ... done
 Pre-screening matrix                    ... done
 Shell pair data                         ... done (   0.010 sec)



           ************************************************************
           *        Program running with 24 parallel MPI-processes    *
           *              working on a common directory               *
           ************************************************************
-------------------------------------------------------------------------------
                                 ORCA SCF
-------------------------------------------------------------------------------

------------
SCF SETTINGS
------------
Hamiltonian:
 Density Functional     Method          .... DFT(GTOs)
 Exchange Functional    Exchange        .... WB97M-V
 Correlation Functional Correlation     .... WB97M-V
 Gradients option       PostSCFGGA      .... off
 Hybrid DFT is turned on
   Fraction HF Exchange ScalHFX         ....  0.150000
   Scaling of DF-GGA-X  ScalDFX         ....  0.000000
   Scaling of DF-GGA-C  ScalDFC         ....  1.000000
   Scaling of DF-LDA-C  ScalLDAC        ....  1.000000
   Perturbative correction              ....  0.000000
   Density functional embedding theory  .... OFF
 Long-range corrected/Screened/Range-Separated Hybrid DFT is turned on
   Amount of maximum screened exact exchange              ....  0.850000
   Range separation parameter mu (erf(mu*r12)/r12)        ....  0.300000
   NL short-range parameter             ....  6.000000
   NL long-range parameter              ....  0.010000


General Settings:
 Integral files         IntName         .... TMB29_C2
 Hartree-Fock type      HFTyp           .... RHF
 Total Charge           Charge          ....    1
 Multiplicity           Mult            ....    1
 Number of Electrons    NEL             ....  126
 Basis Dimension        Dim             ....  815
 Nuclear Repulsion      ENuc            ....   1217.2558935493 Eh

Convergence Acceleration:
 DIIS                   CNVDIIS         .... on
   Start iteration      DIISMaxIt       ....    12
   Startup error        DIISStart       ....  0.200000
   # of expansion vecs  DIISMaxEq       ....     5
   Bias factor          DIISBfac        ....   1.050
   Max. coefficient     DIISMaxC        ....  10.000
 Newton-Raphson         CNVNR           .... off
 SOSCF                  CNVSOSCF        .... off
 Level Shifting         CNVShift        .... on
   Level shift para.    LevelShift      ....    0.2500
   Turn off err/grad.   ShiftErr        ....    0.0010
 Zerner damping         CNVZerner       .... off
 Static damping         CNVDamp         .... on
   Fraction old density DampFac         ....    0.7000
   Max. Damping (<1)    DampMax         ....    0.9800
   Min. Damping (>=0)   DampMin         ....    0.0000
   Turn off err/grad.   DampErr         ....    0.1000
 Fernandez-Rico         CNVRico         .... off

SCF Procedure:
 Maximum # iterations   MaxIter         ....   125
 SCF integral mode      SCFMode         .... Direct
   Integral package                     .... LIBINT
 Reset frequency        DirectResetFreq ....    20
 Integral Threshold     Thresh          ....  1.000e-10 Eh
 Primitive CutOff       TCut            ....  1.000e-11 Eh

Convergence Tolerance:
 Convergence Check Mode ConvCheckMode   .... Total+1el-Energy
 Convergence forced     ConvForced      .... 0
 Energy Change          TolE            ....  1.000e-06 Eh
 1-El. energy change                    ....  1.000e-03 Eh
 DIIS Error             TolErr          ....  1.000e-06


Diagonalization of the overlap matrix:
Smallest eigenvalue                        ... 4.943e-07
Time for diagonalization                   ...    0.130 sec
Threshold for overlap eigenvalues          ... 1.000e-08
Number of eigenvalues below threshold      ... 0
Time for construction of square roots      ...    0.088 sec
Total time needed                          ...    0.220 sec

-------------------
DFT GRID GENERATION
-------------------

General Integration Accuracy     IntAcc      ...  4.670
Radial Grid Type                 RadialGrid  ... Gauss-Chebyshev
Angular Grid (max. acc.)         AngularGrid ... Lebedev-302
Angular grid pruning method      GridPruning ... 3 (G Style)
Weight generation scheme         WeightScheme... Becke
Basis function cutoff            BFCut       ...    1.0000e-10
Integration weight cutoff        WCut        ...    1.0000e-14
Grids for H and He will be reduced by one unit

# of grid points (after initial pruning)     ... 143952 (   0.0 sec)
# of grid points (after weights+screening)   ... 127899 (   0.1 sec)
nearest neighbour list constructed           ...    0.0 sec
Grid point re-assignment to atoms done       ...    0.0 sec
Grid point division into batches done        ...    0.5 sec
Reduced shell lists constructed in    0.6 sec

Total number of grid points                  ...   127899
Total number of batches                      ...     2016
Average number of points per batch           ...       63
Average number of grid points per atom       ...     4410
Average number of shells per batch           ...   189.35 (63.76%)
Average number of basis functions per batch  ...   525.78 (64.51%)
Average number of large shells per batch     ...   148.74 (78.55%)
Average number of large basis fcns per batch ...   410.04 (77.99%)
Maximum spatial batch extension              ...   2.56,  2.79,  2.54 au
Average spatial batch extension              ...   0.05,  0.05,  0.05 au

Time for grid setup =    0.865 sec

------------------------------
INITIAL GUESS: MODEL POTENTIAL
------------------------------
Loading Hartree-Fock densities                     ... done
  calling /sw/apps/orca/orca_4_2_0_linux_x86-64_openmpi314/orca TMB29_C2_atom79.inp > TMB29_C2_atom79.out in order to generate an atomic fitting density for atom 24 (Au with ECP) on-the-fly... 
    atom 24 (Au), assumed electronic state with S=2: 1s2 2s2 2p6 3s2 3p6 4s2 3d10 4p6 5s2 4d10 5p6 6s1 4f14 5d10           ... done
Calculating cut-offs                               ... done
Setting up the integral package                    ... done
Initializing the effective Hamiltonian             ... done
Starting the Coulomb interaction                   ... done (   0.1 sec)
Reading the grid                                   ... done
Mapping shells                                     ... done
Starting the XC term evaluation                    ... done (   0.4 sec)
  promolecular density results
     # of electrons  =    186.994209790
     EX              =   -463.338605716
     EC              =     -8.515152983
     EX+EC           =   -471.853758699
Transforming the Hamiltonian                       ... done (   0.1 sec)
Diagonalizing the Hamiltonian                      ... done (   0.1 sec)
Back transforming the eigenvectors                 ... done (   0.0 sec)
Now organizing SCF variables                       ... done
                      ------------------
                      INITIAL GUESS DONE (   2.8 sec)
                      ------------------
--------------
SCF ITERATIONS
--------------
ITER       Energy         Delta-E        Max-DP      RMS-DP      [F,P]     Damp
               ***  Starting incremental Fock matrix formation  ***
  0  -1054.4142194457   0.000000000000 2.67368239  0.00730258  0.5756356 0.7000
  1  -1054.6233123935  -0.209092947728 1.94411416  0.00528677  0.3997385 0.7000
  2  -1054.7208339337  -0.097521540269 1.38071104  0.00366916  0.2771997 0.7000
                               ***Turning on DIIS***
  3  -1054.7790322475  -0.058198313768 0.95936333  0.00249786  0.1935781 0.7000
  4  -1054.8192950171  -0.040262769635 0.64874379  0.00164808  0.1358952 0.7000
  5  -1054.8476950071  -0.028399990002 1.42222576  0.00362170  0.0956350 0.0000
  6  -1054.9148688491  -0.067173841920 0.08111274  0.00027218  0.0048050 0.0000
  7  -1054.9150564887  -0.000187639655 0.12867935  0.00029631  0.0015197 0.0000
  8  -1054.9151145523  -0.000058063597 0.10056341  0.00027005  0.0015858 0.0000
  9  -1054.9151358246  -0.000021272285 0.03275016  0.00011151  0.0004298 0.0000
 10  -1054.9151421513  -0.000006326746 0.04480552  0.00014729  0.0002893 0.0000
 11  -1054.9151426712  -0.000000519887 0.02577107  0.00010504  0.0001989 0.0000
                 **** Energy Check signals convergence ****

               *****************************************************
               *                     SUCCESS                       *
               *           SCF CONVERGED AFTER  12 CYCLES          *
               *****************************************************


Setting up the DFT-NL grid :

General Integration Accuracy     IntAcc      ...  4.340
Radial Grid Type                 RadialGrid  ... Gauss-Chebyshev
Angular Grid (max. acc.)         AngularGrid ... Lebedev-110
Angular grid pruning method      GridPruning ... 3 (G Style)
Weight generation scheme         WeightScheme... Becke
Basis function cutoff            BFCut       ...    1.0000e-10
Integration weight cutoff        WCut        ...    1.0000e-14
Grids for H and He will be reduced by one unit

# of grid points (after initial pruning)     ...  37298 (   0.0 sec)
# of grid points (after weights+screening)   ...  33776 (   0.0 sec)
nearest neighbour list constructed           ...    0.0 sec
Grid point re-assignment to atoms done       ...    0.0 sec
Grid point division into batches done        ...    0.0 sec
Reduced shell lists constructed in    0.1 sec

Total number of grid points                  ...    33776
Total number of batches                      ...      540
Average number of points per batch           ...       62
Average number of grid points per atom       ...     1165
Average number of shells per batch           ...   190.33 (64.09%)
Average number of basis functions per batch  ...   530.42 (65.08%)
Average number of large shells per batch     ...   149.83 (78.72%)
Average number of large basis fcns per batch ...   413.42 (77.94%)
Maximum spatial batch extension              ...   3.07,  3.47,  2.97 au
Average spatial batch extension              ...   0.08,  0.08,  0.08 au

Final grid set up in    0.1 sec

-------------------------------------------------------------------------------
                         DFT-NL dispersion correction                          
-------------------------------------------------------------------------------

SC Energy -1054.915142847 
NL    Energy 0.473965685 
SC+NL Energy -1054.441177163 
NL done in    0.4 sec
-------------------------------------------------------------------------------

----------------
TOTAL SCF ENERGY
----------------

Total Energy       :        -1054.44117716 Eh          -28692.80314 eV

Components:
Nuclear Repulsion  :         1217.25589355 Eh           33123.21682 eV
Electronic Energy  :        -2271.69707071 Eh          -61816.01996 eV
One Electron Energy:        -3898.53860060 Eh         -106084.62856 eV
Two Electron Energy:         1626.84152989 Eh           44268.60860 eV

Virial components:
Potential Energy   :        -2016.68023118 Eh          -54876.65897 eV
Kinetic Energy     :          962.23905402 Eh           26183.85582 eV
Virial Ratio       :            2.09582039


DFT components:
N(Alpha)           :       62.999925024332 electrons
N(Beta)            :       62.999925024332 electrons
N(Total)           :      125.999850048664 electrons
E(X)               :      -78.604829489151 Eh       
E(C)               :       -4.258972030177 Eh       
NL Energy, E(C,NL) :        0.473965684518 Eh       
E(XC)              :      -82.389835834810 Eh       
DFET-embed. en.    :        0.000000000000 Eh       

---------------
SCF CONVERGENCE
---------------

  Last Energy change         ...   -1.7601e-07  Tolerance :   1.0000e-06
  Last MAX-Density change    ...    1.2322e-01  Tolerance :   1.0000e-05
  Last RMS-Density change    ...    3.0827e-04  Tolerance :   1.0000e-06
  Last DIIS Error            ...    5.2633e-05  Tolerance :   1.0000e-06

             **** THE GBW FILE WAS UPDATED (TMB29_C2.gbw) ****
             **** DENSITY FILE WAS UPDATED (TMB29_C2.scfp) ****
             **** ENERGY FILE WAS UPDATED (TMB29_C2.en.tmp) ****
             **** THE GBW FILE WAS UPDATED (TMB29_C2.gbw) ****
             **** DENSITY FILE WAS UPDATED (TMB29_C2.scfp) ****
----------------
ORBITAL ENERGIES
----------------

  NO   OCC          E(Eh)            E(eV) 
   0   2.0000     -77.531289     -2109.7336 
   1   2.0000     -19.587945      -533.0151 
   2   2.0000     -19.583973      -532.9070 
   3   2.0000     -19.464722      -529.6620 
   4   2.0000     -10.693904      -290.9959 
   5   2.0000     -10.587437      -288.0988 
   6   2.0000     -10.578436      -287.8539 
   7   2.0000     -10.546345      -286.9806 
   8   2.0000     -10.522932      -286.3435 
   9   2.0000     -10.482791      -285.2512 
  10   2.0000     -10.474387      -285.0226 
  11   2.0000     -10.474378      -285.0223 
  12   2.0000     -10.451582      -284.4020 
  13   2.0000      -6.881982      -187.2683 
  14   2.0000      -4.994163      -135.8981 
  15   2.0000      -4.994134      -135.8973 
  16   2.0000      -4.991507      -135.8258 
  17   2.0000      -4.417474      -120.2056 
  18   2.0000      -2.598951       -70.7211 
  19   2.0000      -2.582328       -70.2687 
  20   2.0000      -2.581518       -70.2467 
  21   2.0000      -1.490423       -40.5565 
  22   2.0000      -1.378466       -37.5100 
  23   2.0000      -1.321704       -35.9654 
  24   2.0000      -1.127346       -30.6766 
  25   2.0000      -1.046754       -28.4836 
  26   2.0000      -1.037146       -28.2222 
  27   2.0000      -1.004664       -27.3383 
  28   2.0000      -0.950200       -25.8562 
  29   2.0000      -0.920354       -25.0441 
  30   2.0000      -0.919679       -25.0257 
  31   2.0000      -0.904083       -24.6014 
  32   2.0000      -0.855639       -23.2831 
  33   2.0000      -0.840926       -22.8828 
  34   2.0000      -0.801263       -21.8035 
  35   2.0000      -0.760852       -20.7038 
  36   2.0000      -0.731075       -19.8936 
  37   2.0000      -0.708475       -19.2786 
  38   2.0000      -0.703703       -19.1487 
  39   2.0000      -0.693524       -18.8717 
  40   2.0000      -0.688500       -18.7350 
  41   2.0000      -0.684472       -18.6254 
  42   2.0000      -0.677097       -18.4247 
  43   2.0000      -0.673169       -18.3179 
  44   2.0000      -0.660287       -17.9673 
  45   2.0000      -0.646540       -17.5933 
  46   2.0000      -0.645061       -17.5530 
  47   2.0000      -0.643721       -17.5165 
  48   2.0000      -0.639764       -17.4089 
  49   2.0000      -0.631729       -17.1902 
  50   2.0000      -0.621297       -16.9063 
  51   2.0000      -0.620310       -16.8795 
  52   2.0000      -0.611049       -16.6275 
  53   2.0000      -0.597481       -16.2583 
  54   2.0000      -0.591885       -16.1060 
  55   2.0000      -0.555031       -15.1032 
  56   2.0000      -0.540369       -14.7042 
  57   2.0000      -0.533698       -14.5227 
  58   2.0000      -0.532572       -14.4920 
  59   2.0000      -0.509138       -13.8544 
  60   2.0000      -0.506423       -13.7805 
  61   2.0000      -0.468124       -12.7383 
  62   2.0000      -0.461114       -12.5475 
  63   0.0000      -0.121381        -3.3030 
  64   0.0000      -0.088153        -2.3988 
  65   0.0000      -0.083156        -2.2628 
  66   0.0000      -0.072857        -1.9825 
  67   0.0000      -0.066942        -1.8216 
  68   0.0000      -0.062984        -1.7139 
  69   0.0000      -0.051355        -1.3974 
  70   0.0000      -0.047477        -1.2919 
  71   0.0000      -0.045856        -1.2478 
  72   0.0000      -0.029445        -0.8013 
  73   0.0000      -0.027218        -0.7406 
  74   0.0000      -0.023129        -0.6294 
  75   0.0000      -0.018596        -0.5060 
  76   0.0000      -0.015868        -0.4318 
  77   0.0000      -0.014338        -0.3902 
  78   0.0000      -0.007831        -0.2131 
  79   0.0000      -0.004193        -0.1141 
  80   0.0000      -0.002527        -0.0688 
  81   0.0000       0.000241         0.0066 
  82   0.0000       0.003488         0.0949 
  83   0.0000       0.005915         0.1609 
  84   0.0000       0.019857         0.5403 
  85   0.0000       0.022173         0.6033 
  86   0.0000       0.026858         0.7309 
  87   0.0000       0.029122         0.7924 
  88   0.0000       0.030631         0.8335 
  89   0.0000       0.039352         1.0708 
  90   0.0000       0.044302         1.2055 
  91   0.0000       0.047211         1.2847 
  92   0.0000       0.049735         1.3533 
  93   0.0000       0.057660         1.5690 
  94   0.0000       0.065507         1.7825 
  95   0.0000       0.067800         1.8449 
  96   0.0000       0.070976         1.9314 
  97   0.0000       0.074534         2.0282 
  98   0.0000       0.077069         2.0971 
  99   0.0000       0.087118         2.3706 
 100   0.0000       0.090043         2.4502 
 101   0.0000       0.094182         2.5628 
 102   0.0000       0.100330         2.7301 
 103   0.0000       0.104315         2.8385 
 104   0.0000       0.106741         2.9046 
 105   0.0000       0.113012         3.0752 
 106   0.0000       0.114581         3.1179 
 107   0.0000       0.126618         3.4455 
 108   0.0000       0.128761         3.5038 
 109   0.0000       0.131210         3.5704 
 110   0.0000       0.135059         3.6751 
 111   0.0000       0.137093         3.7305 
 112   0.0000       0.141768         3.8577 
 113   0.0000       0.144537         3.9331 
 114   0.0000       0.149688         4.0732 
 115   0.0000       0.152424         4.1477 
 116   0.0000       0.154359         4.2003 
 117   0.0000       0.156290         4.2529 
 118   0.0000       0.158838         4.3222 
 119   0.0000       0.161516         4.3951 
 120   0.0000       0.167239         4.5508 
 121   0.0000       0.168545         4.5863 
 122   0.0000       0.170504         4.6396 
 123   0.0000       0.174385         4.7453 
 124   0.0000       0.177640         4.8338 
 125   0.0000       0.183154         4.9839 
 126   0.0000       0.187261         5.0956 
 127   0.0000       0.188579         5.1315 
 128   0.0000       0.191830         5.2200 
 129   0.0000       0.192865         5.2481 
 130   0.0000       0.196675         5.3518 
 131   0.0000       0.198483         5.4010 
 132   0.0000       0.202279         5.5043 
 133   0.0000       0.203318         5.5326 
 134   0.0000       0.204696         5.5701 
 135   0.0000       0.207532         5.6472 
 136   0.0000       0.212329         5.7778 
 137   0.0000       0.213084         5.7983 
 138   0.0000       0.218746         5.9524 
 139   0.0000       0.221650         6.0314 
 140   0.0000       0.224885         6.1194 
 141   0.0000       0.228042         6.2053 
 142   0.0000       0.229446         6.2435 
 143   0.0000       0.230291         6.2665 
 144   0.0000       0.238935         6.5018 
 145   0.0000       0.245070         6.6687 
 146   0.0000       0.248186         6.7535 
 147   0.0000       0.252085         6.8596 
 148   0.0000       0.253982         6.9112 
 149   0.0000       0.257255         7.0003 
 150   0.0000       0.257988         7.0202 
 151   0.0000       0.261628         7.1193 
 152   0.0000       0.263473         7.1695 
 153   0.0000       0.270506         7.3608 
 154   0.0000       0.273240         7.4352 
 155   0.0000       0.274658         7.4738 
 156   0.0000       0.277430         7.5493 
 157   0.0000       0.282669         7.6918 
 158   0.0000       0.286499         7.7960 
 159   0.0000       0.287105         7.8125 
 160   0.0000       0.292281         7.9534 
 161   0.0000       0.299538         8.1508 
 162   0.0000       0.302002         8.2179 
 163   0.0000       0.303667         8.2632 
 164   0.0000       0.305078         8.3016 
 165   0.0000       0.305927         8.3247 
 166   0.0000       0.310584         8.4514 
 167   0.0000       0.315462         8.5842 
 168   0.0000       0.316874         8.6226 
 169   0.0000       0.320374         8.7178 
 170   0.0000       0.324796         8.8382 
 171   0.0000       0.326904         8.8955 
 172   0.0000       0.330099         8.9824 
 173   0.0000       0.335784         9.1371 
 174   0.0000       0.342532         9.3208 
 175   0.0000       0.344589         9.3767 
 176   0.0000       0.349794         9.5184 
 177   0.0000       0.350614         9.5407 
 178   0.0000       0.352594         9.5946 
 179   0.0000       0.356836         9.7100 
 180   0.0000       0.358200         9.7471 
 181   0.0000       0.359579         9.7846 
 182   0.0000       0.366291         9.9673 
 183   0.0000       0.374335        10.1862 
 184   0.0000       0.375799        10.2260 
 185   0.0000       0.376585        10.2474 
 186   0.0000       0.382190        10.3999 
 187   0.0000       0.386302        10.5118 
 188   0.0000       0.391082        10.6419 
 189   0.0000       0.393350        10.7036 
 190   0.0000       0.399089        10.8598 
 191   0.0000       0.400875        10.9084 
 192   0.0000       0.402527        10.9533 
 193   0.0000       0.408428        11.1139 
 194   0.0000       0.412591        11.2272 
 195   0.0000       0.418199        11.3798 
 196   0.0000       0.420838        11.4516 
 197   0.0000       0.424091        11.5401 
 198   0.0000       0.430633        11.7181 
 199   0.0000       0.431954        11.7541 
 200   0.0000       0.435719        11.8565 
 201   0.0000       0.439030        11.9466 
 202   0.0000       0.442096        12.0300 
 203   0.0000       0.446882        12.1603 
 204   0.0000       0.448731        12.2106 
 205   0.0000       0.454492        12.3674 
 206   0.0000       0.459308        12.4984 
 207   0.0000       0.462239        12.5782 
 208   0.0000       0.467286        12.7155 
 209   0.0000       0.470682        12.8079 
 210   0.0000       0.473936        12.8965 
 211   0.0000       0.479655        13.0521 
 212   0.0000       0.484372        13.1804 
 213   0.0000       0.488909        13.3039 
 214   0.0000       0.495119        13.4729 
 215   0.0000       0.496259        13.5039 
 216   0.0000       0.500842        13.6286 
 217   0.0000       0.502936        13.6856 
 218   0.0000       0.507033        13.7971 
 219   0.0000       0.513765        13.9803 
 220   0.0000       0.519472        14.1356 
 221   0.0000       0.522066        14.2061 
 222   0.0000       0.525215        14.2918 
 223   0.0000       0.532808        14.4985 
 224   0.0000       0.539912        14.6917 
 225   0.0000       0.542961        14.7747 
 226   0.0000       0.547798        14.9063 
 227   0.0000       0.552702        15.0398 
 228   0.0000       0.561640        15.2830 
 229   0.0000       0.565078        15.3765 
 230   0.0000       0.569584        15.4992 
 231   0.0000       0.570400        15.5214 
 232   0.0000       0.575310        15.6550 
 233   0.0000       0.581616        15.8266 
 234   0.0000       0.582955        15.8630 
 235   0.0000       0.588382        16.0107 
 236   0.0000       0.591395        16.0927 
 237   0.0000       0.593407        16.1474 
 238   0.0000       0.600899        16.3513 
 239   0.0000       0.605841        16.4858 
 240   0.0000       0.611735        16.6461 
 241   0.0000       0.613016        16.6810 
 242   0.0000       0.620180        16.8760 
 243   0.0000       0.624388        16.9905 
 244   0.0000       0.624729        16.9997 
 245   0.0000       0.629409        17.1271 
 246   0.0000       0.637453        17.3460 
 247   0.0000       0.640430        17.4270 
 248   0.0000       0.645113        17.5544 
 249   0.0000       0.649827        17.6827 
 250   0.0000       0.654977        17.8228 
 251   0.0000       0.657171        17.8825 
 252   0.0000       0.662504        18.0277 
 253   0.0000       0.664142        18.0722 
 254   0.0000       0.672456        18.2984 
 255   0.0000       0.675825        18.3901 
 256   0.0000       0.678313        18.4578 
 257   0.0000       0.681588        18.5470 
 258   0.0000       0.683862        18.6088 
 259   0.0000       0.692843        18.8532 
 260   0.0000       0.694703        18.9038 
 261   0.0000       0.700816        19.0702 
 262   0.0000       0.703696        19.1485 
 263   0.0000       0.708166        19.2702 
 264   0.0000       0.713191        19.4069 
 265   0.0000       0.715849        19.4792 
 266   0.0000       0.725548        19.7432 
 267   0.0000       0.729885        19.8612 
 268   0.0000       0.733836        19.9687 
 269   0.0000       0.736600        20.0439 
 270   0.0000       0.741108        20.1666 
 271   0.0000       0.748686        20.3728 
 272   0.0000       0.753360        20.5000 
 273   0.0000       0.756094        20.5744 
 274   0.0000       0.756389        20.5824 
 275   0.0000       0.766375        20.8541 
 276   0.0000       0.771733        20.9999 
 277   0.0000       0.773542        21.0492 
 278   0.0000       0.779893        21.2220 
 279   0.0000       0.794407        21.6169 
 280   0.0000       0.800153        21.7733 
 281   0.0000       0.804300        21.8861 
 282   0.0000       0.808284        21.9945 
 283   0.0000       0.813423        22.1344 
 284   0.0000       0.820411        22.3245 
 285   0.0000       0.822849        22.3909 
 286   0.0000       0.831968        22.6390 
 287   0.0000       0.834458        22.7068 
 288   0.0000       0.837564        22.7913 
 289   0.0000       0.845394        23.0043 
 290   0.0000       0.848776        23.0964 
 291   0.0000       0.854315        23.2471 
 292   0.0000       0.862095        23.4588 
 293   0.0000       0.863735        23.5034 
 294   0.0000       0.880237        23.9525 
 295   0.0000       0.882786        24.0218 
 296   0.0000       0.891909        24.2701 
 297   0.0000       0.897123        24.4119 
 298   0.0000       0.899057        24.4646 
 299   0.0000       0.909902        24.7597 
 300   0.0000       0.917770        24.9738 
 301   0.0000       0.927644        25.2425 
 302   0.0000       0.942236        25.6395 
 303   0.0000       0.944567        25.7030 
 304   0.0000       0.954615        25.9764 
 305   0.0000       0.957284        26.0490 
 306   0.0000       0.967777        26.3345 
 307   0.0000       0.974455        26.5163 
 308   0.0000       0.977318        26.5942 
 309   0.0000       0.986976        26.8570 
 310   0.0000       0.991196        26.9718 
 311   0.0000       0.994094        27.0507 
 312   0.0000       1.008977        27.4557 
 313   0.0000       1.017308        27.6824 
 314   0.0000       1.031070        28.0568 
 315   0.0000       1.033412        28.1206 
 316   0.0000       1.038488        28.2587 
 317   0.0000       1.042055        28.3558 
 318   0.0000       1.053680        28.6721 
 319   0.0000       1.067203        29.0401 
 320   0.0000       1.075954        29.2782 
 321   0.0000       1.087255        29.5857 
 322   0.0000       1.092524        29.7291 
 323   0.0000       1.095592        29.8126 
 324   0.0000       1.100857        29.9558 
 325   0.0000       1.105384        30.0790 
 326   0.0000       1.120248        30.4835 
 327   0.0000       1.122538        30.5458 
 328   0.0000       1.132954        30.8292 
 329   0.0000       1.139667        31.0119 
 330   0.0000       1.145050        31.1584 
 331   0.0000       1.150765        31.3139 
 332   0.0000       1.156533        31.4709 
 333   0.0000       1.165362        31.7111 
 334   0.0000       1.169004        31.8102 
 335   0.0000       1.182825        32.1863 
 336   0.0000       1.186934        32.2981 
 337   0.0000       1.187643        32.3174 
 338   0.0000       1.193990        32.4901 
 339   0.0000       1.201760        32.7015 
 340   0.0000       1.207846        32.8672 
 341   0.0000       1.208808        32.8933 
 342   0.0000       1.216999        33.1162 
 343   0.0000       1.228178        33.4204 
 344   0.0000       1.234776        33.6000 
 345   0.0000       1.236772        33.6543 
 346   0.0000       1.242856        33.8198 
 347   0.0000       1.250992        34.0412 
 348   0.0000       1.255296        34.1584 
 349   0.0000       1.263198        34.3734 
 350   0.0000       1.264998        34.4223 
 351   0.0000       1.276232        34.7280 
 352   0.0000       1.277739        34.7691 
 353   0.0000       1.285975        34.9932 
 354   0.0000       1.290615        35.1194 
 355   0.0000       1.306841        35.5610 
 356   0.0000       1.308618        35.6093 
 357   0.0000       1.310700        35.6659 
 358   0.0000       1.319523        35.9060 
 359   0.0000       1.321808        35.9682 
 360   0.0000       1.326337        36.0915 
 361   0.0000       1.331022        36.2189 
 362   0.0000       1.335401        36.3381 
 363   0.0000       1.345503        36.6130 
 364   0.0000       1.351319        36.7713 
 365   0.0000       1.360109        37.0104 
 366   0.0000       1.371658        37.3247 
 367   0.0000       1.381120        37.5822 
 368   0.0000       1.386050        37.7163 
 369   0.0000       1.396134        37.9907 
 370   0.0000       1.408749        38.3340 
 371   0.0000       1.416115        38.5344 
 372   0.0000       1.420584        38.6561 
 373   0.0000       1.434711        39.0405 
 374   0.0000       1.443148        39.2701 
 375   0.0000       1.451391        39.4944 
 376   0.0000       1.455635        39.6098 
 377   0.0000       1.458106        39.6771 
 378   0.0000       1.469915        39.9984 
 379   0.0000       1.471985        40.0547 
 380   0.0000       1.479810        40.2677 
 381   0.0000       1.485366        40.4189 
 382   0.0000       1.499670        40.8081 
 383   0.0000       1.514780        41.2193 
 384   0.0000       1.526331        41.5336 
 385   0.0000       1.534616        41.7590 
 386   0.0000       1.539334        41.8874 
 387   0.0000       1.541955        41.9587 
 388   0.0000       1.549607        42.1669 
 389   0.0000       1.555951        42.3396 
 390   0.0000       1.557594        42.3843 
 391   0.0000       1.568970        42.6938 
 392   0.0000       1.571986        42.7759 
 393   0.0000       1.575846        42.8810 
 394   0.0000       1.579783        42.9881 
 395   0.0000       1.586298        43.1654 
 396   0.0000       1.594499        43.3885 
 397   0.0000       1.598578        43.4995 
 398   0.0000       1.603723        43.6395 
 399   0.0000       1.607831        43.7513 
 400   0.0000       1.608501        43.7695 
 401   0.0000       1.622374        44.1470 
 402   0.0000       1.628528        44.3145 
 403   0.0000       1.642244        44.6877 
 404   0.0000       1.649771        44.8926 
 405   0.0000       1.656966        45.0883 
 406   0.0000       1.660674        45.1892 
 407   0.0000       1.662965        45.2516 
 408   0.0000       1.670079        45.4452 
 409   0.0000       1.681381        45.7527 
 410   0.0000       1.694837        46.1189 
 411   0.0000       1.697180        46.1826 
 412   0.0000       1.704073        46.3702 
 413   0.0000       1.712267        46.5931 
 414   0.0000       1.724308        46.9208 
 415   0.0000       1.738315        47.3020 
 416   0.0000       1.740657        47.3657 
 417   0.0000       1.758485        47.8508 
 418   0.0000       1.770813        48.1863 
 419   0.0000       1.780536        48.4508 
 420   0.0000       1.801260        49.0148 
 421   0.0000       1.808750        49.2186 
 422   0.0000       1.814033        49.3623 
 423   0.0000       1.837916        50.0122 
 424   0.0000       1.856626        50.5214 
 425   0.0000       1.864516        50.7360 
 426   0.0000       1.872178        50.9446 
 427   0.0000       1.878003        51.1031 
 428   0.0000       1.886713        51.3401 
 429   0.0000       1.903388        51.7938 
 430   0.0000       1.909145        51.9505 
 431   0.0000       1.919882        52.2426 
 432   0.0000       1.931419        52.5566 
 433   0.0000       1.948438        53.0197 
 434   0.0000       1.959456        53.3195 
 435   0.0000       1.966032        53.4984 
 436   0.0000       1.975764        53.7633 
 437   0.0000       1.996054        54.3154 
 438   0.0000       2.017027        54.8861 
 439   0.0000       2.024305        55.0841 
 440   0.0000       2.032502        55.3072 
 441   0.0000       2.045100        55.6500 
 442   0.0000       2.063021        56.1376 
 443   0.0000       2.066325        56.2276 
 444   0.0000       2.071546        56.3696 
 445   0.0000       2.088387        56.8279 
 446   0.0000       2.096240        57.0416 
 447   0.0000       2.111775        57.4643 
 448   0.0000       2.112268        57.4777 
 449   0.0000       2.129658        57.9509 
 450   0.0000       2.143785        58.3354 
 451   0.0000       2.167841        58.9899 
 452   0.0000       2.202640        59.9369 
 453   0.0000       2.209063        60.1117 
 454   0.0000       2.212663        60.2096 
 455   0.0000       2.226302        60.5808 
 456   0.0000       2.233013        60.7634 
 457   0.0000       2.250647        61.2432 
 458   0.0000       2.281596        62.0854 
 459   0.0000       2.306614        62.7662 
 460   0.0000       2.316676        63.0400 
 461   0.0000       2.335748        63.5589 
 462   0.0000       2.361312        64.2546 
 463   0.0000       2.385880        64.9231 
 464   0.0000       2.398214        65.2587 
 465   0.0000       2.400647        65.3249 
 466   0.0000       2.424173        65.9651 
 467   0.0000       2.456808        66.8531 
 468   0.0000       2.467191        67.1357 
 469   0.0000       2.484074        67.5951 
 470   0.0000       2.509895        68.2977 
 471   0.0000       2.516164        68.4683 
 472   0.0000       2.529375        68.8278 
 473   0.0000       2.543871        69.2222 
 474   0.0000       2.561820        69.7107 
 475   0.0000       2.570191        69.9385 
 476   0.0000       2.590368        70.4875 
 477   0.0000       2.629545        71.5535 
 478   0.0000       2.631477        71.6061 
 479   0.0000       2.664567        72.5065 
 480   0.0000       2.671999        72.7088 
 481   0.0000       2.676991        72.8446 
 482   0.0000       2.683962        73.0343 
 483   0.0000       2.690686        73.2173 
 484   0.0000       2.697624        73.4061 
 485   0.0000       2.701325        73.5068 
 486   0.0000       2.730101        74.2898 
 487   0.0000       2.737553        74.4926 
 488   0.0000       2.743705        74.6600 
 489   0.0000       2.755224        74.9735 
 490   0.0000       2.761871        75.1543 
 491   0.0000       2.763669        75.2033 
 492   0.0000       2.775901        75.5361 
 493   0.0000       2.784787        75.7779 
 494   0.0000       2.802129        76.2498 
 495   0.0000       2.804289        76.3086 
 496   0.0000       2.814138        76.5766 
 497   0.0000       2.826453        76.9117 
 498   0.0000       2.832548        77.0776 
 499   0.0000       2.848631        77.5152 
 500   0.0000       2.854969        77.6876 
 501   0.0000       2.865930        77.9859 
 502   0.0000       2.877238        78.2936 
 503   0.0000       2.880007        78.3690 
 504   0.0000       2.894109        78.7527 
 505   0.0000       2.912890        79.2638 
 506   0.0000       2.920342        79.4666 
 507   0.0000       2.934513        79.8522 
 508   0.0000       2.943539        80.0978 
 509   0.0000       2.949678        80.2648 
 510   0.0000       2.967328        80.7451 
 511   0.0000       2.980408        81.1010 
 512   0.0000       2.988520        81.3218 
 513   0.0000       2.990810        81.3841 
 514   0.0000       3.010798        81.9280 
 515   0.0000       3.021321        82.2143 
 516   0.0000       3.034427        82.5710 
 517   0.0000       3.037271        82.6484 
 518   0.0000       3.047975        82.9396 
 519   0.0000       3.063223        83.3545 
 520   0.0000       3.068206        83.4901 
 521   0.0000       3.078541        83.7714 
 522   0.0000       3.085196        83.9525 
 523   0.0000       3.094271        84.1994 
 524   0.0000       3.097165        84.2781 
 525   0.0000       3.102142        84.4136 
 526   0.0000       3.107065        84.5475 
 527   0.0000       3.113057        84.7106 
 528   0.0000       3.118177        84.8499 
 529   0.0000       3.120156        84.9038 
 530   0.0000       3.135290        85.3156 
 531   0.0000       3.141072        85.4729 
 532   0.0000       3.148778        85.6826 
 533   0.0000       3.163612        86.0863 
 534   0.0000       3.165669        86.1422 
 535   0.0000       3.185368        86.6783 
 536   0.0000       3.196795        86.9892 
 537   0.0000       3.205508        87.2263 
 538   0.0000       3.212467        87.4157 
 539   0.0000       3.224916        87.7544 
 540   0.0000       3.234526        88.0159 
 541   0.0000       3.243045        88.2477 
 542   0.0000       3.258333        88.6638 
 543   0.0000       3.264889        88.8421 
 544   0.0000       3.275626        89.1343 
 545   0.0000       3.280616        89.2701 
 546   0.0000       3.282966        89.3340 
 547   0.0000       3.290992        89.5524 
 548   0.0000       3.300461        89.8101 
 549   0.0000       3.307331        89.9971 
 550   0.0000       3.309997        90.0696 
 551   0.0000       3.316656        90.2508 
 552   0.0000       3.322275        90.4037 
 553   0.0000       3.339786        90.8802 
 554   0.0000       3.348913        91.1286 
 555   0.0000       3.359833        91.4257 
 556   0.0000       3.366935        91.6189 
 557   0.0000       3.372829        91.7793 
 558   0.0000       3.377048        91.8942 
 559   0.0000       3.388496        92.2057 
 560   0.0000       3.390469        92.2593 
 561   0.0000       3.406490        92.6953 
 562   0.0000       3.413739        92.8926 
 563   0.0000       3.424243        93.1784 
 564   0.0000       3.436649        93.5160 
 565   0.0000       3.452393        93.9444 
 566   0.0000       3.454796        94.0098 
 567   0.0000       3.460367        94.1614 
 568   0.0000       3.472483        94.4911 
 569   0.0000       3.479176        94.6732 
 570   0.0000       3.486807        94.8809 
 571   0.0000       3.489481        94.9536 
 572   0.0000       3.493220        95.0553 
 573   0.0000       3.500000        95.2398 
 574   0.0000       3.506970        95.4295 
 575   0.0000       3.514634        95.6380 
 576   0.0000       3.522769        95.8594 
 577   0.0000       3.524398        95.9037 
 578   0.0000       3.529697        96.0479 
 579   0.0000       3.540882        96.3523 
 580   0.0000       3.545026        96.4651 
 581   0.0000       3.551277        96.6352 
 582   0.0000       3.557624        96.8079 
 583   0.0000       3.573799        97.2480 
 584   0.0000       3.582276        97.4787 
 585   0.0000       3.592414        97.7546 
 586   0.0000       3.602040        98.0165 
 587   0.0000       3.604756        98.0904 
 588   0.0000       3.611127        98.2638 
 589   0.0000       3.621702        98.5515 
 590   0.0000       3.624581        98.6299 
 591   0.0000       3.627631        98.7129 
 592   0.0000       3.645186        99.1905 
 593   0.0000       3.650550        99.3365 
 594   0.0000       3.654373        99.4405 
 595   0.0000       3.656490        99.4982 
 596   0.0000       3.658405        99.5503 
 597   0.0000       3.682323       100.2011 
 598   0.0000       3.694275       100.5263 
 599   0.0000       3.705405       100.8292 
 600   0.0000       3.714680       101.0816 
 601   0.0000       3.723266       101.3152 
 602   0.0000       3.736926       101.6869 
 603   0.0000       3.744471       101.8922 
 604   0.0000       3.772087       102.6437 
 605   0.0000       3.774537       102.7104 
 606   0.0000       3.788838       103.0995 
 607   0.0000       3.791382       103.1687 
 608   0.0000       3.800858       103.4266 
 609   0.0000       3.820842       103.9704 
 610   0.0000       3.826623       104.1277 
 611   0.0000       3.854067       104.8745 
 612   0.0000       3.867365       105.2363 
 613   0.0000       3.869981       105.3075 
 614   0.0000       3.881297       105.6155 
 615   0.0000       3.887572       105.7862 
 616   0.0000       3.891031       105.8803 
 617   0.0000       3.897873       106.0665 
 618   0.0000       3.905918       106.2854 
 619   0.0000       3.909881       106.3933 
 620   0.0000       3.914855       106.5286 
 621   0.0000       3.926897       106.8563 
 622   0.0000       3.932935       107.0206 
 623   0.0000       3.947536       107.4179 
 624   0.0000       3.948758       107.4512 
 625   0.0000       3.963089       107.8411 
 626   0.0000       3.965336       107.9023 
 627   0.0000       3.974912       108.1629 
 628   0.0000       3.983964       108.4092 
 629   0.0000       3.988730       108.5389 
 630   0.0000       3.993722       108.6747 
 631   0.0000       3.997207       108.7695 
 632   0.0000       4.017301       109.3163 
 633   0.0000       4.027966       109.6065 
 634   0.0000       4.037271       109.8597 
 635   0.0000       4.045425       110.0816 
 636   0.0000       4.053746       110.3080 
 637   0.0000       4.066440       110.6534 
 638   0.0000       4.071998       110.8047 
 639   0.0000       4.078465       110.9807 
 640   0.0000       4.093292       111.3842 
 641   0.0000       4.099610       111.5560 
 642   0.0000       4.104748       111.6959 
 643   0.0000       4.117107       112.0322 
 644   0.0000       4.123007       112.1927 
 645   0.0000       4.129326       112.3647 
 646   0.0000       4.137649       112.5912 
 647   0.0000       4.139595       112.6441 
 648   0.0000       4.142978       112.7362 
 649   0.0000       4.148676       112.8912 
 650   0.0000       4.149241       112.9066 
 651   0.0000       4.157900       113.1422 
 652   0.0000       4.166591       113.3787 
 653   0.0000       4.177697       113.6809 
 654   0.0000       4.178935       113.7146 
 655   0.0000       4.181420       113.7822 
 656   0.0000       4.184468       113.8652 
 657   0.0000       4.191154       114.0471 
 658   0.0000       4.207366       114.4882 
 659   0.0000       4.219094       114.8074 
 660   0.0000       4.224484       114.9541 
 661   0.0000       4.236587       115.2834 
 662   0.0000       4.250734       115.6683 
 663   0.0000       4.255767       115.8053 
 664   0.0000       4.267850       116.1341 
 665   0.0000       4.280791       116.4863 
 666   0.0000       4.293183       116.8234 
 667   0.0000       4.301250       117.0430 
 668   0.0000       4.303500       117.1042 
 669   0.0000       4.312435       117.3473 
 670   0.0000       4.321479       117.5934 
 671   0.0000       4.334153       117.9383 
 672   0.0000       4.357307       118.5684 
 673   0.0000       4.359333       118.6235 
 674   0.0000       4.376757       119.0976 
 675   0.0000       4.391152       119.4893 
 676   0.0000       4.401981       119.7840 
 677   0.0000       4.417511       120.2066 
 678   0.0000       4.429032       120.5201 
 679   0.0000       4.436845       120.7327 
 680   0.0000       4.451473       121.1307 
 681   0.0000       4.456466       121.2666 
 682   0.0000       4.477640       121.8428 
 683   0.0000       4.517182       122.9188 
 684   0.0000       4.529052       123.2418 
 685   0.0000       4.559892       124.0810 
 686   0.0000       4.563857       124.1889 
 687   0.0000       4.576298       124.5274 
 688   0.0000       4.608838       125.4129 
 689   0.0000       4.623219       125.8042 
 690   0.0000       4.644560       126.3849 
 691   0.0000       4.649119       126.5090 
 692   0.0000       4.656827       126.7187 
 693   0.0000       4.663104       126.8895 
 694   0.0000       4.678779       127.3160 
 695   0.0000       4.699499       127.8799 
 696   0.0000       4.709491       128.1518 
 697   0.0000       4.716586       128.3448 
 698   0.0000       4.725385       128.5843 
 699   0.0000       4.745321       129.1267 
 700   0.0000       4.752731       129.3284 
 701   0.0000       4.760646       129.5438 
 702   0.0000       4.785584       130.2224 
 703   0.0000       4.788898       130.3125 
 704   0.0000       4.809163       130.8640 
 705   0.0000       4.815260       131.0299 
 706   0.0000       4.832757       131.5060 
 707   0.0000       4.874274       132.6357 
 708   0.0000       4.882125       132.8494 
 709   0.0000       4.897961       133.2803 
 710   0.0000       4.901883       133.3870 
 711   0.0000       4.953645       134.7955 
 712   0.0000       4.989701       135.7767 
 713   0.0000       5.004555       136.1809 
 714   0.0000       5.013883       136.4347 
 715   0.0000       5.021357       136.6381 
 716   0.0000       5.047295       137.3439 
 717   0.0000       5.072618       138.0329 
 718   0.0000       5.090770       138.5269 
 719   0.0000       5.106580       138.9571 
 720   0.0000       5.112842       139.1275 
 721   0.0000       5.135078       139.7326 
 722   0.0000       5.149205       140.1170 
 723   0.0000       5.186181       141.1232 
 724   0.0000       5.193118       141.3119 
 725   0.0000       5.195209       141.3688 
 726   0.0000       5.217534       141.9763 
 727   0.0000       5.223749       142.1454 
 728   0.0000       5.232658       142.3879 
 729   0.0000       5.240058       142.5892 
 730   0.0000       5.256554       143.0381 
 731   0.0000       5.270231       143.4103 
 732   0.0000       5.273618       143.5024 
 733   0.0000       5.287755       143.8871 
 734   0.0000       5.294508       144.0709 
 735   0.0000       5.323501       144.8598 
 736   0.0000       5.327545       144.9699 
 737   0.0000       5.335534       145.1873 
 738   0.0000       5.374035       146.2349 
 739   0.0000       5.390921       146.6944 
 740   0.0000       5.397534       146.8744 
 741   0.0000       5.412063       147.2697 
 742   0.0000       5.414901       147.3469 
 743   0.0000       5.429643       147.7481 
 744   0.0000       5.446159       148.1975 
 745   0.0000       5.474867       148.9787 
 746   0.0000       5.486603       149.2980 
 747   0.0000       5.512597       150.0054 
 748   0.0000       5.526372       150.3802 
 749   0.0000       5.548554       150.9838 
 750   0.0000       5.581329       151.8757 
 751   0.0000       5.604264       152.4998 
 752   0.0000       5.622600       152.9987 
 753   0.0000       5.629455       153.1853 
 754   0.0000       5.650474       153.7572 
 755   0.0000       5.659215       153.9951 
 756   0.0000       5.661001       154.0437 
 757   0.0000       5.669161       154.2657 
 758   0.0000       5.680327       154.5696 
 759   0.0000       5.692052       154.8886 
 760   0.0000       5.744115       156.3053 
 761   0.0000       5.784761       157.4114 
 762   0.0000       5.800405       157.8370 
 763   0.0000       5.895913       160.4359 
 764   0.0000       5.909433       160.8039 
 765   0.0000       5.985879       162.8841 
 766   0.0000       5.995429       163.1439 
 767   0.0000       6.031534       164.1264 
 768   0.0000       6.057605       164.8358 
 769   0.0000       6.132326       166.8691 
 770   0.0000       6.160697       167.6411 
 771   0.0000       6.284975       171.0229 
 772   0.0000       6.417604       174.6319 
 773   0.0000       6.487754       176.5408 
 774   0.0000       6.528557       177.6511 
 775   0.0000       6.542462       178.0294 
 776   0.0000       6.566252       178.6768 
 777   0.0000       6.608589       179.8289 
 778   0.0000       6.616504       180.0442 
 779   0.0000       6.671266       181.5344 
 780   0.0000       6.717698       182.7979 
 781   0.0000       6.755677       183.8313 
 782   0.0000       6.835434       186.0016 
 783   0.0000       6.910976       188.0572 
 784   0.0000       6.933629       188.6736 
 785   0.0000       6.960215       189.3971 
 786   0.0000       7.012091       190.8087 
 787   0.0000       7.135213       194.1590 
 788   0.0000       7.200507       195.9358 
 789   0.0000       7.269708       197.8188 
 790   0.0000       7.372480       200.6154 
 791   0.0000       7.390960       201.1183 
 792   0.0000       7.563933       205.8251 
 793   0.0000       7.626358       207.5237 
 794   0.0000       7.923267       215.6030 
 795   0.0000       7.931629       215.8306 
 796   0.0000       7.964981       216.7382 
 797   0.0000      16.348899       444.8762 
 798   0.0000      23.050929       627.2477 
 799   0.0000      23.209288       631.5568 
 800   0.0000      23.518611       639.9739 
 801   0.0000      23.711748       645.2295 
 802   0.0000      23.776629       646.9950 
 803   0.0000      23.916961       650.8136 
 804   0.0000      23.974041       652.3668 
 805   0.0000      24.036146       654.0568 
 806   0.0000      24.140184       656.8878 
 807   0.0000      29.571474       804.6807 
 808   0.0000      31.560369       858.8013 
 809   0.0000      35.056389       953.9329 
 810   0.0000      44.780867      1218.5493 
 811   0.0000      44.944651      1223.0061 
 812   0.0000      44.991413      1224.2786 
 813   0.0000      45.004587      1224.6371 
 814   0.0000     205.483311      5591.4851 

                    ********************************
                    * MULLIKEN POPULATION ANALYSIS *
                    ********************************

-----------------------
MULLIKEN ATOMIC CHARGES
-----------------------
   0 C :    0.340908
   1 C :   -0.319035
   2 C :   -1.115065
   3 H :    0.242753
   4 H :    0.322726
   5 H :    0.314827
   6 C :    2.130792
   7 O :   -0.345551
   8 C :    0.897581
   9 O :   -0.427467
  10 C :    0.464678
  11 O :   -0.520858
  12 C :   -1.263953
  13 H :    0.269692
  14 H :    0.344788
  15 H :    0.315679
  16 C :   -1.034779
  17 H :    0.278257
  18 H :    0.287766
  19 H :    0.276825
  20 C :   -1.352705
  21 H :    0.346851
  22 H :    0.225447
  23 H :    0.344218
  24 Au:   -0.345451
  25 P :   -0.160357
  26 H :    0.165403
  27 H :    0.156330
  28 H :    0.159702
Sum of atomic charges:    1.0000000

--------------------------------
MULLIKEN REDUCED ORBITAL CHARGES
--------------------------------
  0 C s       :     3.463156  s :     3.463156
      pz      :     0.837685  p :     2.232494
      px      :     0.646752
      py      :     0.748058
      dz2     :    -0.010705  d :    -0.045274
      dxz     :     0.016317
      dyz     :    -0.015303
      dx2y2   :     0.045613
      dxy     :    -0.081197
      f0      :     0.001129  f :     0.008717
      f+1     :     0.000837
      f-1     :     0.000957
      f+2     :     0.001085
      f-2     :     0.001045
      f+3     :     0.002026
      f-3     :     0.001640
  1 C s       :     3.929663  s :     3.929663
      pz      :     1.036401  p :     2.138883
      px      :     0.098335
      py      :     1.004147
      dz2     :     0.022350  d :     0.236792
      dxz     :     0.014502
      dyz     :     0.010984
      dx2y2   :     0.030405
      dxy     :     0.158551
      f0      :     0.001797  f :     0.013698
      f+1     :     0.001354
      f-1     :     0.001293
      f+2     :     0.001302
      f-2     :     0.001700
      f+3     :     0.003823
      f-3     :     0.002427
  2 C s       :     3.649303  s :     3.649303
      pz      :     1.227034  p :     3.409250
      px      :     1.255341
      py      :     0.926874
      dz2     :     0.028208  d :     0.053777
      dxz     :     0.032357
      dyz     :    -0.001087
      dx2y2   :    -0.002305
      dxy     :    -0.003397
      f0      :     0.000209  f :     0.002735
      f+1     :     0.000182
      f-1     :     0.000390
      f+2     :     0.000421
      f-2     :     0.000177
      f+3     :     0.000773
      f-3     :     0.000583
  3 H s       :     0.727049  s :     0.727049
      pz      :     0.014303  p :     0.027904
      px      :     0.013722
      py      :    -0.000121
      dz2     :     0.000161  d :     0.002295
      dxz     :     0.000648
      dyz     :     0.000133
      dx2y2   :     0.000717
      dxy     :     0.000635
  4 H s       :     0.632687  s :     0.632687
      pz      :     0.016014  p :     0.042321
      px      :     0.022909
      py      :     0.003398
      dz2     :     0.000655  d :     0.002265
      dxz     :     0.000395
      dyz     :     0.000388
      dx2y2   :     0.000496
      dxy     :     0.000331
  5 H s       :     0.640678  s :     0.640678
      pz      :     0.015325  p :     0.042228
      px      :     0.022522
      py      :     0.004381
      dz2     :     0.000689  d :     0.002267
      dxz     :     0.000555
      dyz     :     0.000663
      dx2y2   :     0.000196
      dxy     :     0.000164
  6 C s       :     2.190192  s :     2.190192
      pz      :     0.527511  p :     1.580415
      px      :     0.424765
      py      :     0.628139
      dz2     :     0.060571  d :     0.085790
      dxz     :     0.045822
      dyz     :    -0.030847
      dx2y2   :    -0.023274
      dxy     :     0.033517
      f0      :     0.002081  f :     0.012812
      f+1     :     0.001585
      f-1     :     0.001893
      f+2     :     0.002237
      f-2     :     0.000823
      f+3     :     0.001993
      f-3     :     0.002199
  7 O s       :     3.962376  s :     3.962376
      pz      :     1.631270  p :     4.356731
      px      :     1.327510
      py      :     1.397951
      dz2     :     0.003320  d :     0.024253
      dxz     :     0.003559
      dyz     :     0.005700
      dx2y2   :     0.012097
      dxy     :    -0.000423
      f0      :     0.000289  f :     0.002191
      f+1     :     0.000239
      f-1     :     0.000327
      f+2     :     0.000295
      f-2     :     0.000164
      f+3     :     0.000424
      f-3     :     0.000453
  8 C s       :     3.163731  s :     3.163731
      pz      :     0.607817  p :     1.804961
      px      :     0.629984
      py      :     0.567160
      dz2     :     0.018625  d :     0.107487
      dxz     :     0.020952
      dyz     :     0.053709
      dx2y2   :     0.056595
      dxy     :    -0.042394
      f0      :     0.002405  f :     0.026239
      f+1     :     0.001810
      f-1     :     0.002594
      f+2     :     0.002531
      f-2     :     0.003729
      f+3     :     0.006730
      f-3     :     0.006440
  9 O s       :     4.020884  s :     4.020884
      pz      :     1.588608  p :     4.367918
      px      :     1.250972
      py      :     1.528337
      dz2     :     0.003121  d :     0.036432
      dxz     :     0.018794
      dyz     :     0.004922
      dx2y2   :    -0.010946
      dxy     :     0.020541
      f0      :     0.000303  f :     0.002233
      f+1     :     0.000336
      f-1     :     0.000215
      f+2     :     0.000121
      f-2     :     0.000358
      f+3     :     0.000469
      f-3     :     0.000432
 10 C s       :     3.506632  s :     3.506632
      pz      :     0.647060  p :     1.914036
      px      :     0.614349
      py      :     0.652627
      dz2     :    -0.016181  d :     0.097000
      dxz     :     0.052733
      dyz     :     0.005911
      dx2y2   :     0.051192
      dxy     :     0.003345
      f0      :     0.002512  f :     0.017655
      f+1     :     0.002064
      f-1     :     0.001907
      f+2     :     0.002340
      f-2     :     0.002759
      f+3     :     0.003703
      f-3     :     0.002369
 11 O s       :     4.057171  s :     4.057171
      pz      :     1.696412  p :     4.430350
      px      :     1.308305
      py      :     1.425633
      dz2     :     0.003325  d :     0.031358
      dxz     :     0.005280
      dyz     :     0.000345
      dx2y2   :     0.013580
      dxy     :     0.008829
      f0      :     0.000258  f :     0.001978
      f+1     :     0.000274
      f-1     :     0.000110
      f+2     :     0.000139
      f-2     :     0.000257
      f+3     :     0.000589
      f-3     :     0.000350
 12 C s       :     3.747700  s :     3.747700
      pz      :     1.043375  p :     3.432697
      px      :     1.144452
      py      :     1.244869
      dz2     :    -0.004417  d :     0.081253
      dxz     :     0.017162
      dyz     :     0.019666
      dx2y2   :     0.017392
      dxy     :     0.031450
      f0      :     0.000217  f :     0.002303
      f+1     :     0.000602
      f-1     :     0.000176
      f+2     :     0.000522
      f-2     :     0.000577
      f+3     :     0.000054
      f-3     :     0.000154
 13 H s       :     0.695607  s :     0.695607
      pz      :     0.006516  p :     0.032401
      px      :     0.017060
      py      :     0.008825
      dz2     :     0.000443  d :     0.002300
      dxz     :     0.000269
      dyz     :     0.000539
      dx2y2   :     0.000482
      dxy     :     0.000566
 14 H s       :     0.607526  s :     0.607526
      pz      :     0.014398  p :     0.045330
      px      :     0.009824
      py      :     0.021109
      dz2     :     0.000594  d :     0.002356
      dxz     :     0.000428
      dyz     :     0.000469
      dx2y2   :     0.000475
      dxy     :     0.000390
 15 H s       :     0.644585  s :     0.644585
      pz      :     0.004339  p :     0.037434
      px      :     0.019260
      py      :     0.013834
      dz2     :     0.000235  d :     0.002302
      dxz     :     0.000659
      dyz     :     0.000234
      dx2y2   :     0.000613
      dxy     :     0.000561
 16 C s       :     3.523180  s :     3.523180
      pz      :     1.254293  p :     3.443586
      px      :     0.922321
      py      :     1.266971
      dz2     :     0.025102  d :     0.065812
      dxz     :     0.010554
      dyz     :     0.021318
      dx2y2   :     0.007217
      dxy     :     0.001621
      f0      :     0.000271  f :     0.002202
      f+1     :     0.000294
      f-1     :     0.000059
      f+2     :     0.000288
      f-2     :     0.000061
      f+3     :     0.000606
      f-3     :     0.000622
 17 H s       :     0.676389  s :     0.676389
      pz      :     0.021916  p :     0.042945
      px      :     0.000988
      py      :     0.020041
      dz2     :     0.000459  d :     0.002409
      dxz     :     0.000175
      dyz     :     0.000613
      dx2y2   :     0.000486
      dxy     :     0.000676
 18 H s       :     0.674222  s :     0.674222
      pz      :     0.016138  p :     0.035671
      px      :     0.007005
      py      :     0.012528
[...]
  15 H :    0.013225
  16 C :    0.306916
  17 H :    0.026428
  18 H :    0.030758
  19 H :    0.037359
  20 C :    0.231604
  21 H :    0.022758
  22 H :   -0.010060
  23 H :    0.020493
  24 Au:    0.555186
  25 P :    0.828128
  26 H :   -0.163443
  27 H :   -0.167843
  28 H :   -0.166044

-------------------------------
LOEWDIN REDUCED ORBITAL CHARGES
-------------------------------
  0 C s       :     2.741549  s :     2.741549
      pz      :     0.682003  p :     2.656618
      px      :     1.054571
      py      :     0.920043
      dz2     :     0.095572  d :     0.809057
      dxz     :     0.105692
      dyz     :     0.140492
      dx2y2   :     0.211688
      dxy     :     0.255612
      f0      :     0.004469  f :     0.050648
      f+1     :     0.005066
      f-1     :     0.004601
      f+2     :     0.006533
      f-2     :     0.006503
      f+3     :     0.012951
      f-3     :     0.010525
  1 C s       :     2.621911  s :     2.621911
      pz      :     0.872085  p :     2.478541
      px      :     0.798291
      py      :     0.808165
      dz2     :     0.116612  d :     1.001997
      dxz     :     0.154938
      dyz     :     0.126686
      dx2y2   :     0.331073
      dxy     :     0.272688
      f0      :     0.006319  f :     0.078878
      f+1     :     0.008531
      f-1     :     0.005943
      f+2     :     0.006464
      f-2     :     0.010374
      f+3     :     0.023129
      f-3     :     0.018117
  2 C s       :     2.643459  s :     2.643459
      pz      :     0.921011  p :     2.720044
      px      :     0.919887
      py      :     0.879146
      dz2     :     0.082214  d :     0.510144
      dxz     :     0.064000
      dyz     :     0.100988
      dx2y2   :     0.099728
      dxy     :     0.163215
      f0      :     0.002608  f :     0.031608
      f+1     :     0.004876
      f-1     :     0.004197
      f+2     :     0.003581
      f-2     :     0.004686
      f+3     :     0.005757
      f-3     :     0.005902
  3 H s       :     0.688932  s :     0.688932
      pz      :     0.079295  p :     0.296911
      px      :     0.134199
      py      :     0.083417
      dz2     :     0.002706  d :     0.030288
      dxz     :     0.008588
      dyz     :     0.001523
      dx2y2   :     0.008493
      dxy     :     0.008978
  4 H s       :     0.693184  s :     0.693184
      pz      :     0.101380  p :     0.286844
      px      :     0.093146
      py      :     0.092318
      dz2     :     0.007669  d :     0.030393
      dxz     :     0.005791
      dyz     :     0.006099
      dx2y2   :     0.005838
      dxy     :     0.004996
  5 H s       :     0.694001  s :     0.694001
      pz      :     0.120729  p :     0.287270
      px      :     0.090584
      py      :     0.075957
      dz2     :     0.010097  d :     0.030390
      dxz     :     0.008477
      dyz     :     0.007396
      dx2y2   :     0.002368
      dxy     :     0.002053
  6 C s       :     2.587820  s :     2.587820
      pz      :     0.912109  p :     2.416068
      px      :     0.624204
      py      :     0.879755
      dz2     :     0.252681  d :     1.180978
      dxz     :     0.214704
      dyz     :     0.269454
      dx2y2   :     0.254586
      dxy     :     0.189553
      f0      :     0.012095  f :     0.088232
      f+1     :     0.012323
      f-1     :     0.011516
      f+2     :     0.014031
      f-2     :     0.007233
      f+3     :     0.016109
      f-3     :     0.014926
  7 O s       :     3.154036  s :     3.154036
      pz      :     1.443701  p :     4.188322
      px      :     1.320915
      py      :     1.423706
      dz2     :     0.057062  d :     0.486371
      dxz     :     0.089251
      dyz     :     0.067990
      dx2y2   :     0.129259
      dxy     :     0.142809
      f0      :     0.000645  f :     0.007910
      f+1     :     0.000456
      f-1     :     0.000742
      f+2     :     0.001365
      f-2     :     0.000400
      f+3     :     0.001906
      f-3     :     0.002397
  8 C s       :     2.603720  s :     2.603720
      pz      :     0.579123  p :     2.256508
      px      :     0.890430
      py      :     0.786955
      dz2     :     0.129383  d :     1.271174
      dxz     :     0.207062
      dyz     :     0.216084
      dx2y2   :     0.368776
      dxy     :     0.349869
      f0      :     0.011090  f :     0.168430
      f+1     :     0.011226
      f-1     :     0.014138
      f+2     :     0.018765
      f-2     :     0.026842
      f+3     :     0.043987
      f-3     :     0.042383
  9 O s       :     3.151122  s :     3.151122
      pz      :     1.398485  p :     4.163069
      px      :     1.279920
      py      :     1.484664
      dz2     :     0.053649  d :     0.491644
      dxz     :     0.105850
      dyz     :     0.040675
      dx2y2   :     0.142892
      dxy     :     0.148578
      f0      :     0.000571  f :     0.008313
      f+1     :     0.000818
      f-1     :     0.000453
      f+2     :     0.000415
      f-2     :     0.001524
      f+3     :     0.002524
      f-3     :     0.002008
 10 C s       :     2.644050  s :     2.644050
      pz      :     0.802757  p :     2.373507
      px      :     0.851575
      py      :     0.719175
      dz2     :     0.225512  d :     1.197872
      dxz     :     0.299076
      dyz     :     0.185030
      dx2y2   :     0.240089
      dxy     :     0.248164
      f0      :     0.017413  f :     0.111317
      f+1     :     0.012082
      f-1     :     0.012538
      f+2     :     0.015448
      f-2     :     0.015218
      f+3     :     0.021852
      f-3     :     0.016767
 11 O s       :     3.322129  s :     3.322129
      pz      :     1.496563  p :     4.301973
      px      :     1.446216
      py      :     1.359194
      dz2     :     0.038008  d :     0.267976
      dxz     :     0.072813
      dyz     :     0.024522
      dx2y2   :     0.055681
      dxy     :     0.076953
      f0      :     0.000790  f :     0.006534
      f+1     :     0.000955
      f-1     :     0.000363
      f+2     :     0.000580
      f-2     :     0.000843
      f+3     :     0.001340
      f-3     :     0.001662
 12 C s       :     2.622325  s :     2.622325
      pz      :     0.879437  p :     2.688337
      px      :     0.903510
      py      :     0.905390
      dz2     :     0.069622  d :     0.418389
      dxz     :     0.110371
      dyz     :     0.105100
      dx2y2   :     0.065054
      dxy     :     0.068242
      f0      :     0.004516  f :     0.030039
      f+1     :     0.006191
      f-1     :     0.002818
      f+2     :     0.004525
      f-2     :     0.004975
      f+3     :     0.002586
      f-3     :     0.004428
 13 H s       :     0.676904  s :     0.676904
      pz      :     0.082813  p :     0.281334
      px      :     0.078302
      py      :     0.120220
      dz2     :     0.005060  d :     0.030285
      dxz     :     0.002977
      dyz     :     0.008285
      dx2y2   :     0.006324
      dxy     :     0.007638
 14 H s       :     0.681998  s :     0.681998
      pz      :     0.091057  p :     0.273161
      px      :     0.087190
      py      :     0.094914
      dz2     :     0.006906  d :     0.030953
      dxz     :     0.005804
      dyz     :     0.007018
      dx2y2   :     0.006055
      dxy     :     0.005171
 15 H s       :     0.677364  s :     0.677364
      pz      :     0.079752  p :     0.278976
      px      :     0.113221
      py      :     0.086002
      dz2     :     0.003469  d :     0.030436
      dxz     :     0.007585
      dyz     :     0.002657
      dx2y2   :     0.008598
      dxy     :     0.008127
 16 C s       :     2.616404  s :     2.616404
      pz      :     0.922657  p :     2.679040
      px      :     0.832823
      py      :     0.923560
      dz2     :     0.069686  d :     0.367241
      dxz     :     0.061480
      dyz     :     0.050072
      dx2y2   :     0.098979
      dxy     :     0.087024
      f0      :     0.004786  f :     0.030399
      f+1     :     0.005471
      f-1     :     0.000543
      f+2     :     0.003977
      f-2     :     0.003498
      f+3     :     0.006070
      f-3     :     0.006053
 17 H s       :     0.676713  s :     0.676713
      pz      :     0.085439  p :     0.266183
      px      :     0.063606
      py      :     0.117138
      dz2     :     0.005627  d :     0.030676
      dxz     :     0.001896
      dyz     :     0.008770
      dx2y2   :     0.007090
      dxy     :     0.007293
 18 H s       :     0.672793  s :     0.672793
      pz      :     0.086046  p :     0.265956
      px      :     0.077025
      py      :     0.102885
      dz2     :     0.005627  d :     0.030493
      dxz     :     0.004141
      dyz     :     0.006403
      dx2y2   :     0.007536
      dxy     :     0.006786
 19 H s       :     0.667979  s :     0.667979
      pz      :     0.123580  p :     0.264397
      px      :     0.067404
      py      :     0.073413
      dz2     :     0.010122  d :     0.030265
      dxz     :     0.008610
      dyz     :     0.009171
      dx2y2   :     0.001336
      dxy     :     0.001027
 20 C s       :     2.614008  s :     2.614008
      pz      :     0.838460  p :     2.652502
      px      :     0.904748
      py      :     0.909293
      dz2     :     0.115593  d :     0.471126
      dxz     :     0.075269
      dyz     :     0.140074
      dx2y2   :     0.094859
      dxy     :     0.045331
      f0      :     0.006179  f :     0.030760
      f+1     :     0.006043
      f-1     :     0.005092
      f+2     :     0.003354
      f-2     :     0.004406
      f+3     :     0.004864
      f-3     :     0.000823
 21 H s       :     0.679845  s :     0.679845
      pz      :     0.068677  p :     0.267061
      px      :     0.081256
      py      :     0.117128
      dz2     :     0.003686  d :     0.030336
      dxz     :     0.001681
      dyz     :     0.008103
      dx2y2   :     0.008741
      dxy     :     0.008125
 22 H s       :     0.665324  s :     0.665324
      pz      :     0.084510  p :     0.313674
      px      :     0.143550
      py      :     0.085614
      dz2     :     0.002922  d :     0.031062
      dxz     :     0.009394
      dyz     :     0.000144
      dx2y2   :     0.008496
      dxy     :     0.010107
 23 H s       :     0.681669  s :     0.681669
      pz      :     0.085079  p :     0.267287
      px      :     0.079616
      py      :     0.102592
      dz2     :     0.007357  d :     0.030550
      dxz     :     0.004510
      dyz     :     0.007650
      dx2y2   :     0.005803
      dxy     :     0.005230
 24 Aus       :     2.425083  s :     2.425083
      pz      :     2.028922  p :     6.433122
      px      :     2.306492
      py      :     2.097707
      dz2     :     1.940496  d :     9.545469
      dxz     :     1.901445
      dyz     :     1.959951
      dx2y2   :     1.878401
      dxy     :     1.865177
      f0      :     0.002063  f :     0.040558
      f+1     :     0.008485
      f-1     :     0.002432
      f+2     :     0.001464
      f-2     :     0.002332
      f+3     :     0.004981
      f-3     :     0.018801
      g0      :     0.000049  g :     0.000581
      g+1     :     0.000049
      g-1     :     0.000014
      g+2     :     0.000045
      g-2     :     0.000075
      g+3     :     0.000011
      g-3     :     0.000049
      g+4     :     0.000099
      g-4     :     0.000191
 25 P s       :     4.813189  s :     4.813189
      pz      :     2.851598  p :     8.791494
      px      :     3.040712
      py      :     2.899183
      dz2     :     0.087022  d :     0.510936
      dxz     :     0.061885
      dyz     :     0.129956
      dx2y2   :     0.086375
      dxy     :     0.145698
      f0      :     0.004606  f :     0.056253
      f+1     :     0.007978
      f-1     :     0.007480
      f+2     :     0.008884
      f-2     :     0.006865
      f+3     :     0.009031
      f-3     :     0.011410
 26 H s       :     0.851978  s :     0.851978
      pz      :     0.098562  p :     0.298559
      px      :     0.085105
      py      :     0.114892
      dz2     :     0.002436  d :     0.012906
      dxz     :     0.001626
      dyz     :     0.004417
      dx2y2   :     0.002000
      dxy     :     0.002427
 27 H s       :     0.853722  s :     0.853722
      pz      :     0.061707  p :     0.301233
      px      :     0.142927
      py      :     0.096599
      dz2     :     0.001662  d :     0.012888
      dxz     :     0.001703
      dyz     :     0.001231
      dx2y2   :     0.003875
      dxy     :     0.004417
 28 H s       :     0.853921  s :     0.853921
      pz      :     0.127246  p :     0.299230
      px      :     0.086965
      py      :     0.085019
      dz2     :     0.003926  d :     0.012893
      dxz     :     0.003040
      dyz     :     0.004150
      dx2y2   :     0.000650
      dxy     :     0.001126


                      *****************************
                      * MAYER POPULATION ANALYSIS *
                      *****************************

  NA   - Mulliken gross atomic population
  ZA   - Total nuclear charge
  QA   - Mulliken gross atomic charge
  VA   - Mayer's total valence
  BVA  - Mayer's bonded valence
  FA   - Mayer's free valence

  ATOM       NA         ZA         QA         VA         BVA        FA
  0 C      5.6591     6.0000     0.3409     2.3254     2.3254     0.0000
  1 C      6.3190     6.0000    -0.3190     1.2647     1.2647     0.0000
  2 C      7.1151     6.0000    -1.1151     3.5060     3.5060     0.0000
  3 H      0.7572     1.0000     0.2428     0.9807     0.9807    -0.0000
  4 H      0.6773     1.0000     0.3227     0.9416     0.9416    -0.0000
  5 H      0.6852     1.0000     0.3148     0.9576     0.9576    -0.0000
  6 C      3.8692     6.0000     2.1308     1.2136     1.2136    -0.0000
  7 O      8.3456     8.0000    -0.3456     1.7896     1.7896     0.0000
  8 C      5.1024     6.0000     0.8976     2.9303     2.9303     0.0000
  9 O      8.4275     8.0000    -0.4275     2.0367     2.0367     0.0000
 10 C      5.5353     6.0000     0.4647     2.3190     2.3190     0.0000
 11 O      8.5209     8.0000    -0.5209     1.6314     1.6314    -0.0000
 12 C      7.2640     6.0000    -1.2640     3.6369     3.6369     0.0000
 13 H      0.7303     1.0000     0.2697     0.9532     0.9532     0.0000
 14 H      0.6552     1.0000     0.3448     0.9477     0.9477    -0.0000
 15 H      0.6843     1.0000     0.3157     0.9325     0.9325    -0.0000
 16 C      7.0348     6.0000    -1.0348     3.4629     3.4629     0.0000
 17 H      0.7217     1.0000     0.2783     0.9836     0.9836    -0.0000
 18 H      0.7122     1.0000     0.2878     0.9678     0.9678     0.0000
 19 H      0.7232     1.0000     0.2768     0.9862     0.9862     0.0000
 20 C      7.3527     6.0000    -1.3527     3.2727     3.2727    -0.0000
 21 H      0.6531     1.0000     0.3469     0.9771     0.9771    -0.0000
 22 H      0.7746     1.0000     0.2254     1.1022     1.1022    -0.0000
 23 H      0.6558     1.0000     0.3442     0.9792     0.9792    -0.0000
 24 Au    19.3455    19.0000    -0.3455     2.0179     2.0179     0.0000
 25 P     15.1604    15.0000    -0.1604     3.7108     3.7108    -0.0000
 26 H      0.8346     1.0000     0.1654     0.9272     0.9272    -0.0000
 27 H      0.8437     1.0000     0.1563     0.9301     0.9301    -0.0000
 28 H      0.8403     1.0000     0.1597     0.9288     0.9288     0.0000

  Mayer bond orders larger than 0.100000
B(  0-C ,  1-C ) :   0.6198 B(  0-C ,  2-C ) :   0.2964 B(  0-C ,  6-C ) :   0.1243 
B(  0-C ,  9-O ) :   0.1681 B(  0-C , 24-Au) :   1.2805 B(  1-C ,  2-C ) :   0.1092 
B(  1-C ,  9-O ) :   0.5719 B(  1-C , 10-C ) :   0.3482 B(  1-C , 24-Au) :  -0.2941 
B(  2-C ,  3-H ) :   1.0052 B(  2-C ,  4-H ) :   0.9367 B(  2-C ,  5-H ) :   0.9496 
B(  6-C ,  7-O ) :   0.5390 B(  6-C ,  8-C ) :  -0.1078 B(  6-C , 10-C ) :   0.2308 
B(  6-C , 20-C ) :   0.5538 B(  7-O ,  8-C ) :   1.2083 B(  7-O ,  9-O ) :   0.1068 
B(  8-C ,  9-O ) :   1.1393 B(  8-C , 16-C ) :   0.7822 B( 10-C , 11-O ) :   1.5274 
B( 10-C , 12-C ) :   0.6099 B( 10-C , 13-H ) :  -0.1014 B( 10-C , 20-C ) :  -0.1227 
B( 12-C , 13-H ) :   0.9583 B( 12-C , 14-H ) :   0.9624 B( 12-C , 15-H ) :   0.9597 
B( 16-C , 17-H ) :   1.0043 B( 16-C , 18-H ) :   0.9520 B( 16-C , 19-H ) :   0.8971 
B( 20-C , 21-H ) :   0.8859 B( 20-C , 22-H ) :   1.0259 B( 20-C , 23-H ) :   0.9417 
B( 24-Au, 25-P ) :   0.8768 B( 25-P , 26-H ) :   0.9351 B( 25-P , 27-H ) :   0.9416 
B( 25-P , 28-H ) :   0.9360 

-------
TIMINGS
-------

Total SCF time: 0 days 0 hours 9 min 35 sec 

Total time                  ....     575.644 sec
Sum of individual times     ....     574.188 sec  ( 99.7%)

Fock matrix formation       ....     567.245 sec  ( 98.5%)
  XC integration            ....      10.576 sec  (  1.9% of F)
    Basis function eval.    ....       1.002 sec  (  9.5% of XC)
    Density eval.           ....       3.437 sec  ( 32.5% of XC)
    XC-Functional eval.     ....       0.113 sec  (  1.1% of XC)
    XC-Potential eval.      ....       4.877 sec  ( 46.1% of XC)
Diagonalization             ....       2.500 sec  (  0.4%)
Density matrix formation    ....       0.103 sec  (  0.0%)
Population analysis         ....       0.138 sec  (  0.0%)
Initial guess               ....       1.969 sec  (  0.3%)
Orbital Transformation      ....       0.000 sec  (  0.0%)
Orbital Orthonormalization  ....       0.000 sec  (  0.0%)
DIIS solution               ....       1.242 sec  (  0.2%)
Grid generation             ....       0.990 sec  (  0.2%)

-------------------------   --------------------
FINAL SINGLE POINT ENERGY     -1054.441177162719
-------------------------   --------------------


                            ***************************************
                            *     ORCA property calculations      *
                            ***************************************

                                    ---------------------
                                    Active property flags
                                    ---------------------
   (+) Dipole Moment


------------------------------------------------------------------------------
                       ORCA ELECTRIC PROPERTIES CALCULATION
------------------------------------------------------------------------------

Dipole Moment Calculation                       ... on
Quadrupole Moment Calculation                   ... off
Polarizability Calculation                      ... off
GBWName                                         ... TMB29_C2.gbw
Electron density file                           ... TMB29_C2.scfp
The origin for moment calculation is the CENTER OF MASS  = (-0.365868, -0.059798  0.000023)

-------------
DIPOLE MOMENT
-------------
                                X             Y             Z
Electronic contribution:   -213.29488     -43.40065      -1.30533
Nuclear contribution   :    216.19870      43.43467       1.47956
                        -----------------------------------------
Total Dipole Moment    :      2.90382       0.03402       0.17424
                        -----------------------------------------
Magnitude (a.u.)       :      2.90924
Magnitude (Debye)      :      7.39471



--------------------
Rotational spectrum 
--------------------
 
Rotational constants in cm-1:     0.028648     0.008219     0.007101 
Rotational constants in MHz :   858.848987   246.390678   212.872024 

 Dipole components along the rotational axes: 
x,y,z [a.u.] :    -2.904526    -0.009922     0.165290 
x,y,z [Debye]:    -7.382719    -0.025219     0.420133 

 

Timings for individual modules:

Sum of individual times         ...      579.702 sec (=   9.662 min)
GTO integral calculation        ...        3.585 sec (=   0.060 min)   0.6 %
SCF iterations                  ...      576.117 sec (=   9.602 min)  99.4 %
                             ****ORCA TERMINATED NORMALLY****
TOTAL RUN TIME: 0 days 0 hours 9 minutes 40 seconds 469 msec
