
                                 *****************
                                 * O   R   C   A *
                                 *****************

           --- An Ab Initio, DFT and Semiempirical electronic structure package ---

                  #######################################################
                  #                        -***-                        #
                  #          Department of theory and spectroscopy      #
                  #               Directorship: Frank Neese             #
                  #        Max Planck Institute fuer Kohlenforschung    #
                  #                Kaiser Wilhelm Platz 1               #
                  #                 D-45470 Muelheim/Ruhr               #
                  #                      Germany                        #
                  #                                                     #
                  #                  All rights reserved                #
                  #                        -***-                        #
                  #######################################################


                         Program Version 4.2.0 -  RELEASE  -


 With contributions from (in alphabetic order):
   Daniel Aravena         : Magnetic Suceptibility
   Michael Atanasov       : Ab Initio Ligand Field Theory (pilot matlab implementation)
   Alexander A. Auer      : GIAO ZORA, VPT2
   Ute Becker             : Parallelization
   Giovanni Bistoni       : ED, misc. LED, open-shell LED, HFLED
   Martin Brehm           : Molecular dynamics
   Dmytro Bykov           : SCF Hessian
   Vijay G. Chilkuri      : MRCI spin determinant printing, contributions to CSF-ICE
   Dipayan Datta          : RHF DLPNO-CCSD density
   Achintya Kumar Dutta   : EOM-CC, STEOM-CC
   Dmitry Ganyushin       : Spin-Orbit,Spin-Spin,Magnetic field MRCI
   Miquel Garcia          : C-PCM Hessian, Gaussian charge scheme
   Yang Guo               : DLPNO-NEVPT2, CIM, IAO-localization
   Andreas Hansen         : Spin unrestricted coupled pair/coupled cluster methods
   Benjamin Helmich-Paris : CASSCF linear response (MC-RPA)
   Lee Huntington         : MR-EOM, pCC
   Robert Izsak           : Overlap fitted RIJCOSX, COSX-SCS-MP3, EOM
   Christian Kollmar      : KDIIS, OOCD, Brueckner-CCSD(T), CCSD density
   Simone Kossmann        : Meta GGA functionals, TD-DFT gradient, OOMP2, MP2 Hessian
   Martin Krupicka        : AUTO-CI
   Lucas Lang             : DCDCAS
   Dagmar Lenk            : GEPOL surface, SMD
   Dimitrios Liakos       : Extrapolation schemes; Compound Job, initial MDCI parallelization
   Dimitrios Manganas     : Further ROCIS development; embedding schemes
   Dimitrios Pantazis     : SARC Basis sets
   Taras Petrenko         : DFT Hessian,TD-DFT gradient, ASA, ECA, R-Raman, ABS, FL, XAS/XES, NRVS
   Peter Pinski           : DLPNO-MP2, DLPNO-MP2 Gradient
   Christoph Reimann      : Effective Core Potentials
   Marius Retegan         : Local ZFS, SOC
   Christoph Riplinger    : Optimizer, TS searches, QM/MM, DLPNO-CCSD(T), (RO)-DLPNO pert. Triples
   Tobias Risthaus        : Range-separated hybrids, TD-DFT gradient, RPA, STAB
   Michael Roemelt        : Original ROCIS implementation
   Masaaki Saitow         : Open-shell DLPNO-CCSD energy and density
   Barbara Sandhoefer     : DKH picture change effects
   Avijit Sen             : IP-ROCIS
   Kantharuban Sivalingam : CASSCF convergence, NEVPT2, FIC-MRCI
   Bernardo de Souza      : ESD, SOC TD-DFT
   Georgi Stoychev        : AutoAux, RI-MP2 NMR
   Willem Van den Heuvel  : Paramagnetic NMR
   Boris Wezisla          : Elementary symmetry handling
   Frank Wennmohs         : Technical directorship


 We gratefully acknowledge several colleagues who have allowed us to
 interface, adapt or use parts of their codes:
   Stefan Grimme, W. Hujo, H. Kruse,             : VdW corrections, initial TS optimization,
                  C. Bannwarth                     DFT functionals, gCP, sTDA/sTD-DF
   Ed Valeev, F. Pavosevic, A. Kumar             : LibInt (2-el integral package), F12 methods
   Garnet Chan, S. Sharma, J. Yang, R. Olivares  : DMRG
   Ulf Ekstrom                                   : XCFun DFT Library
   Mihaly Kallay                                 : mrcc  (arbitrary order and MRCC methods)
   Andreas Klamt, Michael Diedenhofen            : otool_cosmo (COSMO solvation model)
   Jiri Pittner, Ondrej Demel                    : Mk-CCSD
   Frank Weinhold                                : gennbo (NPA and NBO analysis)
   Christopher J. Cramer and Donald G. Truhlar   : smd solvation model
   Lars Goerigk                                  : TD-DFT with DH, B97 family of functionals
   V. Asgeirsson, H. Jonsson                     : NEB implementation
   FAccTs GmbH                                   : IRC, NEB, NEB-TS, Multilevel, MM, QM/MM, CI optimization
   S Lehtola, MJT Oliveira, MAL Marques          : LibXC Library


 Your calculation uses the libint2 library for the computation of 2-el integrals
 For citations please refer to: http://libint.valeyev.net

 Your ORCA version has been built with support for libXC version: 4.2.3
 For citations please refer to: https://tddft.org/programs/libxc/

 This ORCA versions uses:
   CBLAS   interface :  Fast vector & matrix operations
   LAPACKE interface :  Fast linear algebra routines
   SCALAPACK package :  Parallel linear algebra routines


Your calculation utilizes the DFT-NL dispersion correction.
Cite in your paper:
Vydrov, O. A.; Van Voorhis, T. J. Chem. Phys. 2010, 133, 244103
Hujo, W.; Grimme, S. J. Chem. Theory Comput. 2011, 7, 3866 
   

----- Orbital basis set information -----
Your calculation utilizes the basis: def2-TZVPPD
   F. Weigend and R. Ahlrichs, Phys. Chem. Chem. Phys. 7, 3297 (2005).
   D. Rappoport and F. Furche, J. Chem. Phys. 133 134105 (2010).

----- AuxJK basis set information -----
Your calculation utilizes the auxiliary basis: def2/JK
   H-Ba, Hf-Rn: F. Weigend, J. Comput. Chem. 29, 167 (2008).

cite the ECPs for Re [Def2-ECP] as follows:
Ce-Yb(ecp-28): M. Dolg, H. Stoll, H.Preuss, J. Chem. Phys., 1989, 90, 1730-1734.
Y-Cd(ecp-28), Hf-Hg(ecp-46): D. Andrae,U. Haeussermann, M. Dolg, H. Stoll, H. Preuss, Theor. Chim. Acta, 1990, 77, 123-141.
In-Sb(ecp-28), Tl-Bi(ecp-46): B. Metz, H. Stoll, M. Dolg, J. Chem. Phys., 2000, 113, 2563-2569.
Te-Xe(ecp-28), Po-Rn(ecp-46): K. A. Peterson, D. Figgen, E. Goll, H. Stoll, M. Dolg, J. Chem. Phys., 2003, 119, 11113-11123.
Rb(ecp-28), Cs(ecp-46): T. Leininger, A. Nicklass, W. Kuechle, H. Stoll, M. Dolg, A. Bergner, Chem. Phys. Lett., 1996, 255, 274-280.
Sr(ecp-28), Ba(ecp-46): M. Kaupp, P. V. Schleyer, H. Stoll and H. Preuss, J. Chem. Phys., 1991, 94, 1360-1366.
La(ecp-46): M. Dolg, H. Stoll, A. Savin, H. Preuss, Theor. Chim. Acta, 1989, 75, 173-194.
Lu(ecp-28): X. Cao, M. Dolg, J. Chem. Phys., 2001, 115, 7348-7355.

ECP parameters for Re [Def2-ECP] have been obtained from:
TURBOMOLE (7.0.2)

================================================================================
                                        WARNINGS
                       Please study these warnings very carefully!
================================================================================


INFO   : the flag for use of LIBINT has been found!

================================================================================
                                       INPUT FILE
================================================================================
NAME = TMB20_C1.in
|  1> #
|  2> # TMB20_C1 wB97M-V/Def2-TZVPPD
|  3> #
|  4> ! wb97m-v def2-tzvppd def2/jk grid4 nofinalgrid
|  5> 
|  6> *xyz 0 1
|  7> Re      -1.072665    0.212376   -0.034636 
|  8> C       -1.072260   -0.271683    1.857255 
|  9> C       -2.882577   -0.347239   -0.151918 
| 10> C       -1.671800    1.974535    0.387813 
| 11> Br      -0.106106   -2.222959   -0.227559 
| 12> O       -2.042355    3.032773    0.649150 
| 13> O       -1.092539   -0.543239    2.965184 
| 14> O       -3.977345   -0.680746   -0.233754 
| 15> C       -1.097144    1.301488   -2.052782 
| 16> C       -0.757943    0.130940   -2.251371 
| 17> C        3.116548    1.792974   -0.035452 
| 18> C        3.822495    0.593532    0.034050 
| 19> O        3.256440   -0.568022    0.077602 
| 20> O        5.128051    0.619793    0.055969 
| 21> C        1.730040    1.757413   -0.054388 
| 22> O        1.074850    0.675289   -0.001074 
| 23> H        2.259004   -0.423965    0.051981 
| 24> C        5.826586   -0.629933    0.127198 
| 25> H        6.879482   -0.365214    0.136783 
| 26> H        5.557636   -1.164457    1.037079 
| 27> H        5.594141   -1.245208   -0.740821 
| 28> H       -0.446457   -0.764543   -2.749196 
| 29> H        3.656243    2.725032   -0.072675 
| 30> H       -1.374127    2.315189   -2.254725 
| 31> H        1.177176    2.699572   -0.113184 
| 32> *
| 33> 
| 34> %maxcore 5000
| 35> 
| 36> %pal
| 37> nprocs = 24
| 38> end
| 39> 
| 40> 
| 41>                          ****END OF INPUT****
================================================================================

                       ****************************
                       * Single Point Calculation *
                       ****************************

---------------------------------
CARTESIAN COORDINATES (ANGSTROEM)
---------------------------------
  Re    -1.072665    0.212376   -0.034636
  C     -1.072260   -0.271683    1.857255
  C     -2.882577   -0.347239   -0.151918
  C     -1.671800    1.974535    0.387813
  Br    -0.106106   -2.222959   -0.227559
  O     -2.042355    3.032773    0.649150
  O     -1.092539   -0.543239    2.965184
  O     -3.977345   -0.680746   -0.233754
  C     -1.097144    1.301488   -2.052782
  C     -0.757943    0.130940   -2.251371
  C      3.116548    1.792974   -0.035452
  C      3.822495    0.593532    0.034050
  O      3.256440   -0.568022    0.077602
  O      5.128051    0.619793    0.055969
  C      1.730040    1.757413   -0.054388
  O      1.074850    0.675289   -0.001074
  H      2.259004   -0.423965    0.051981
  C      5.826586   -0.629933    0.127198
  H      6.879482   -0.365214    0.136783
  H      5.557636   -1.164457    1.037079
  H      5.594141   -1.245208   -0.740821
  H     -0.446457   -0.764543   -2.749196
  H      3.656243    2.725032   -0.072675
  H     -1.374127    2.315189   -2.254725
  H      1.177176    2.699572   -0.113184

----------------------------
CARTESIAN COORDINATES (A.U.)
----------------------------
  NO LB      ZA    FRAG     MASS         X           Y           Z
   0 Re   15.0000*   0   186.207   -2.027043    0.401332   -0.065453
   1 C     6.0000    0    12.011   -2.026278   -0.513406    3.509703
   2 C     6.0000    0    12.011   -5.447281   -0.656187   -0.287083
   3 C     6.0000    0    12.011   -3.159244    3.731330    0.732860
   4 Br   35.0000    0    79.900   -0.200511   -4.200784   -0.430024
   5 O     8.0000    0    15.999   -3.859492    5.731110    1.226716
   6 O     8.0000    0    15.999   -2.064600   -1.026573    5.603386
   7 O     8.0000    0    15.999   -7.516093   -1.286424   -0.441731
   8 C     6.0000    0    12.011   -2.073302    2.459456   -3.879196
   9 C     6.0000    0    12.011   -1.432305    0.247441   -4.254475
  10 C     6.0000    0    12.011    5.889422    3.388230   -0.066995
  11 C     6.0000    0    12.011    7.223469    1.121613    0.064345
  12 O     8.0000    0    15.999    6.153780   -1.073406    0.146647
  13 O     8.0000    0    15.999    9.690612    1.171239    0.105766
  14 C     6.0000    0    12.011    3.269302    3.321029   -0.102778
  15 O     8.0000    0    15.999    2.031172    1.276111   -0.002030
  16 H     1.0000    0     1.008    4.268899   -0.801178    0.098230
  17 C     6.0000    0    12.011   11.010652   -1.190401    0.240369
  18 H     1.0000    0     1.008   13.000337   -0.690154    0.258482
  19 H     1.0000    0     1.008   10.502410   -2.200505    1.959795
  20 H     1.0000    0     1.008   10.571394   -2.353102   -1.399949
  21 H     1.0000    0     1.008   -0.843681   -1.444777   -5.195228
  22 H     1.0000    0     1.008    6.909298    5.149564   -0.137336
  23 H     1.0000    0     1.008   -2.596724    4.375073   -4.260813
  24 H     1.0000    0     1.008    2.224540    5.101452   -0.213887
* core charge reduced due to ECP

--------------------------------
INTERNAL COORDINATES (ANGSTROEM)
--------------------------------
 Re     0   0   0     0.000000000000     0.00000000     0.00000000
 C      1   0   0     1.952835076341     0.00000000     0.00000000
 C      1   2   0     1.898079414433    89.25385645     0.00000000
 C      1   2   3     1.908567590395    90.83021686    89.21868551
 Br     1   2   3     2.627225180040    80.86819387   265.64057500
 O      4   1   2     1.151293055759   179.39382481   307.85842972
 O      2   1   3     1.140903399950   178.81765866   313.11216394
 O      3   1   2     1.147362638301   179.40290805   170.20873337
 C      1   2   3     2.293398667328   165.98529094   105.03756460
 C      9   1   3     1.234778332182    71.84477628   270.24034489
 C      1   2   3     4.477476550785    95.01894288   177.44011374
 C     11   1   2     1.393503787644    99.79504400    73.63016355
 O     12  11   1     1.292873827813   123.58606329     0.08481975
 O     12  11   1     1.306004039740   119.33757094   180.00091655
 C     11   1   2     1.387093216363    19.21815263   254.12624644
 O     15  11   1     1.266139277517   122.58761344     1.08924936
 H     13  12  11     1.008110821778   107.69507391     0.00000000
 C     14  12  11     1.433471238547   118.06282715   180.02397767
 H     18  14  12     1.085706225460   105.09659074   180.18420390
 H     18  14  12     1.089005713133   110.43157156   299.48102806
 H     18  14  12     1.089059680647   110.42184320    60.89482170
 H     10   9   1     1.070860897647   161.33402129   181.00629092
 H     11   1   2     1.077677298693   140.70271851   253.41969679
 H      9   1   3     1.070088909829   128.22090502    88.10759206
 H     15  11   1     1.093974018610   118.93475415   180.81163060

---------------------------
INTERNAL COORDINATES (A.U.)
---------------------------
 Re     0   0   0     0.000000000000     0.00000000     0.00000000
 C      1   0   0     3.690323478999     0.00000000     0.00000000
 C      1   2   0     3.586850273711    89.25385645     0.00000000
 C      1   2   3     3.606670053925    90.83021686    89.21868551
 Br     1   2   3     4.964736082417    80.86819387   265.64057500
 O      4   1   2     2.175628575269   179.39382481   307.85842972
 O      2   1   3     2.155994971166   178.81765866   313.11216394
 O      3   1   2     2.168201162682   179.40290805   170.20873337
 C      1   2   3     4.333895397150   165.98529094   105.03756460
 C      9   1   3     2.333392883924    71.84477628   270.24034489
 C      1   2   3     8.461204452038    95.01894288   177.44011374
 C     11   1   2     2.633340525228    99.79504400    73.63016355
 O     12  11   1     2.443177460282   123.58606329     0.08481975
 O     12  11   1     2.467989964904   119.33757094   180.00091655
 C     11   1   2     2.621226301147    19.21815263   254.12624644
 O     15  11   1     2.392656481909   122.58761344     1.08924936
 H     13  12  11     1.905053365803   107.69507391     0.00000000
 C     14  12  11     2.708868061707   118.06282715   180.02397767
 H     18  14  12     2.051687428012   105.09659074   180.18420390
 H     18  14  12     2.057922556098   110.43157156   299.48102806
 H     18  14  12     2.058024539919   110.42184320    60.89482170
 H     10   9   1     2.023633824078   161.33402129   181.00629092
 H     11   1   2     2.036514955274   140.70271851   253.41969679
 H      9   1   3     2.022174978523   128.22090502    88.10759206
 H     15  11   1     2.067311292798   118.93475415   180.81163060

---------------------
BASIS SET INFORMATION
---------------------
There are 5 groups of distinct atoms

 Group   1 Type Re  : 8s8p6d2f1g contracted to 6s5p3d2f1g pattern {311111/41111/411/11/1}
 Group   2 Type C   : 12s6p3d1f contracted to 6s3p3d1f pattern {621111/411/111/1}
 Group   3 Type Br  : 18s14p9d1f contracted to 7s6p5d1f pattern {8421111/641111/51111/1}
 Group   4 Type O   : 12s7p3d1f contracted to 6s4p3d1f pattern {621111/4111/111/1}
 Group   5 Type H   : 5s3p1d contracted to 3s3p1d pattern {311/111/1}

Atom   0Re   basis set group =>   1
Atom   1C    basis set group =>   2
Atom   2C    basis set group =>   2
Atom   3C    basis set group =>   2
Atom   4Br   basis set group =>   3
Atom   5O    basis set group =>   4
Atom   6O    basis set group =>   4
Atom   7O    basis set group =>   4
Atom   8C    basis set group =>   2
Atom   9C    basis set group =>   2
Atom  10C    basis set group =>   2
Atom  11C    basis set group =>   2
Atom  12O    basis set group =>   4
Atom  13O    basis set group =>   4
Atom  14C    basis set group =>   2
Atom  15O    basis set group =>   4
Atom  16H    basis set group =>   5
Atom  17C    basis set group =>   2
Atom  18H    basis set group =>   5
Atom  19H    basis set group =>   5
Atom  20H    basis set group =>   5
Atom  21H    basis set group =>   5
Atom  22H    basis set group =>   5
Atom  23H    basis set group =>   5
Atom  24H    basis set group =>   5
----------------------------------
AUXILIARY/JK BASIS SET INFORMATION
----------------------------------
There are 5 groups of distinct atoms

 Group   1 Type Re  : 13s12p11d9f5g3h2i contracted to 11s9p9d7f4g3h2i pattern {31111111111/411111111/311111111/3111111/2111/111/11}
 Group   2 Type C   : 14s10p6d2f1g contracted to 10s8p5d1f1g pattern {5111111111/31111111/21111/2/1}
 Group   3 Type Br  : 20s14p13d10f7g3h contracted to 17s13p12d9f6g3h pattern {41111111111111111/2111111111111/211111111111/211111111/211111/111}
 Group   4 Type O   : 14s10p6d2f1g contracted to 10s8p4d2f1g pattern {5111111111/31111111/3111/11/1}
 Group   5 Type H   : 4s2p2d contracted to 2s2p2d pattern {31/11/11}

Atom   0Re   basis set group =>   1
Atom   1C    basis set group =>   2
Atom   2C    basis set group =>   2
Atom   3C    basis set group =>   2
Atom   4Br   basis set group =>   3
Atom   5O    basis set group =>   4
Atom   6O    basis set group =>   4
Atom   7O    basis set group =>   4
Atom   8C    basis set group =>   2
Atom   9C    basis set group =>   2
Atom  10C    basis set group =>   2
Atom  11C    basis set group =>   2
Atom  12O    basis set group =>   4
Atom  13O    basis set group =>   4
Atom  14C    basis set group =>   2
Atom  15O    basis set group =>   4
Atom  16H    basis set group =>   5
Atom  17C    basis set group =>   2
Atom  18H    basis set group =>   5
Atom  19H    basis set group =>   5
Atom  20H    basis set group =>   5
Atom  21H    basis set group =>   5
Atom  22H    basis set group =>   5
Atom  23H    basis set group =>   5
Atom  24H    basis set group =>   5
-------------------------
ECP PARAMETER INFORMATION
-------------------------

 Group 1, Type Re ECP Def2-ECP (replacing 60 core electrons, lmax=3)

Atom   0Re   ECP group =>   1



           ************************************************************
           *        Program running with 24 parallel MPI-processes    *
           *              working on a common directory               *
           ************************************************************
------------------------------------------------------------------------------
                           ORCA GTO INTEGRAL CALCULATION
------------------------------------------------------------------------------

                         BASIS SET STATISTICS AND STARTUP INFO

 # of primitive gaussian shells          ...  475
 # of primitive gaussian functions       ... 1147
 # of contracted shells                  ...  293
 # of contracted basis functions         ...  825
 Highest angular momentum                ...    4
 Maximum contraction depth               ...    8
 Integral package used                   ... LIBINT
 Integral threshhold            Thresh   ...  1.000e-10
 Primitive cut-off              TCut     ...  1.000e-11


------------------------------ INTEGRAL EVALUATION ----------------------------


 * One electron integrals 

   ECP integrals                         ... done
 Pre-screening matrix                    ... done
 Shell pair data                         ... done (   0.010 sec)



           ************************************************************
           *        Program running with 24 parallel MPI-processes    *
           *              working on a common directory               *
           ************************************************************
-------------------------------------------------------------------------------
                                 ORCA SCF
-------------------------------------------------------------------------------

------------
SCF SETTINGS
------------
Hamiltonian:
 Density Functional     Method          .... DFT(GTOs)
 Exchange Functional    Exchange        .... WB97M-V
 Correlation Functional Correlation     .... WB97M-V
 Gradients option       PostSCFGGA      .... off
 Hybrid DFT is turned on
   Fraction HF Exchange ScalHFX         ....  0.150000
   Scaling of DF-GGA-X  ScalDFX         ....  0.000000
   Scaling of DF-GGA-C  ScalDFC         ....  1.000000
   Scaling of DF-LDA-C  ScalLDAC        ....  1.000000
   Perturbative correction              ....  0.000000
   Density functional embedding theory  .... OFF
 Long-range corrected/Screened/Range-Separated Hybrid DFT is turned on
   Amount of maximum screened exact exchange              ....  0.850000
   Range separation parameter mu (erf(mu*r12)/r12)        ....  0.300000
   NL short-range parameter             ....  6.000000
   NL long-range parameter              ....  0.010000


General Settings:
 Integral files         IntName         .... TMB20_C1
 Hartree-Fock type      HFTyp           .... RHF
 Total Charge           Charge          ....    0
 Multiplicity           Mult            ....    1
 Number of Electrons    NEL             ....  160
 Basis Dimension        Dim             ....  825
 Nuclear Repulsion      ENuc            ....   1745.9077640197 Eh

Convergence Acceleration:
 DIIS                   CNVDIIS         .... on
   Start iteration      DIISMaxIt       ....    12
   Startup error        DIISStart       ....  0.200000
   # of expansion vecs  DIISMaxEq       ....     5
   Bias factor          DIISBfac        ....   1.050
   Max. coefficient     DIISMaxC        ....  10.000
 Newton-Raphson         CNVNR           .... off
 SOSCF                  CNVSOSCF        .... off
 Level Shifting         CNVShift        .... on
   Level shift para.    LevelShift      ....    0.2500
   Turn off err/grad.   ShiftErr        ....    0.0010
 Zerner damping         CNVZerner       .... off
 Static damping         CNVDamp         .... on
   Fraction old density DampFac         ....    0.7000
   Max. Damping (<1)    DampMax         ....    0.9800
   Min. Damping (>=0)   DampMin         ....    0.0000
   Turn off err/grad.   DampErr         ....    0.1000
 Fernandez-Rico         CNVRico         .... off

SCF Procedure:
 Maximum # iterations   MaxIter         ....   125
 SCF integral mode      SCFMode         .... Direct
   Integral package                     .... LIBINT
 Reset frequency        DirectResetFreq ....    20
 Integral Threshold     Thresh          ....  1.000e-10 Eh
 Primitive CutOff       TCut            ....  1.000e-11 Eh

Convergence Tolerance:
 Convergence Check Mode ConvCheckMode   .... Total+1el-Energy
 Convergence forced     ConvForced      .... 0
 Energy Change          TolE            ....  1.000e-06 Eh
 1-El. energy change                    ....  1.000e-03 Eh
 DIIS Error             TolErr          ....  1.000e-06


Diagonalization of the overlap matrix:
Smallest eigenvalue                        ... 8.224e-07
Time for diagonalization                   ...    0.134 sec
Threshold for overlap eigenvalues          ... 1.000e-08
Number of eigenvalues below threshold      ... 0
Time for construction of square roots      ...    0.086 sec
Total time needed                          ...    0.223 sec

-------------------
DFT GRID GENERATION
-------------------

General Integration Accuracy     IntAcc      ...  4.670
Radial Grid Type                 RadialGrid  ... Gauss-Chebyshev
Angular Grid (max. acc.)         AngularGrid ... Lebedev-302
Angular grid pruning method      GridPruning ... 3 (G Style)
Weight generation scheme         WeightScheme... Becke
Basis function cutoff            BFCut       ...    1.0000e-10
Integration weight cutoff        WCut        ...    1.0000e-14
Grids for H and He will be reduced by one unit

# of grid points (after initial pruning)     ... 141600 (   0.0 sec)
# of grid points (after weights+screening)   ... 128092 (   0.1 sec)
nearest neighbour list constructed           ...    0.0 sec
Grid point re-assignment to atoms done       ...    0.0 sec
Grid point division into batches done        ...    0.5 sec
Reduced shell lists constructed in    0.6 sec

Total number of grid points                  ...   128092
Total number of batches                      ...     2015
Average number of points per batch           ...       63
Average number of grid points per atom       ...     5124
Average number of shells per batch           ...   181.94 (62.10%)
Average number of basis functions per batch  ...   528.95 (64.12%)
Average number of large shells per batch     ...   140.73 (77.35%)
Average number of large basis fcns per batch ...   410.49 (77.61%)
Maximum spatial batch extension              ...   1.87,  1.90,  2.06 au
Average spatial batch extension              ...   0.04,  0.04,  0.04 au

Time for grid setup =    0.745 sec

------------------------------
INITIAL GUESS: MODEL POTENTIAL
------------------------------
Loading Hartree-Fock densities                     ... done
  calling /sw/apps/orca/orca_4_2_0_linux_x86-64_openmpi314/orca TMB20_C1_atom75.inp > TMB20_C1_atom75.out in order to generate an atomic fitting density for atom 0 (Re with ECP) on-the-fly... 
    atom 0 (Re), assumed electronic state with S=6: 1s2 2s2 2p6 3s2 3p6 4s2 3d10 4p6 5s2 4d10 5p6 6s2 4f14 5d5           ... done
Calculating cut-offs                               ... done
Setting up the integral package                    ... done
Initializing the effective Hamiltonian             ... done
Starting the Coulomb interaction                   ... done (   0.1 sec)
Reading the grid                                   ... done
Mapping shells                                     ... done
Starting the XC term evaluation                    ... done (   0.3 sec)
  promolecular density results
     # of electrons  =    219.998219601
     EX              =   -519.414927325
     EC              =     -9.940283025
     EX+EC           =   -529.355210351
Transforming the Hamiltonian                       ... done (   0.1 sec)
Diagonalizing the Hamiltonian                      ... done (   0.1 sec)
Back transforming the eigenvectors                 ... done (   0.0 sec)
Now organizing SCF variables                       ... done
                      ------------------
                      INITIAL GUESS DONE (   2.8 sec)
                      ------------------
--------------
SCF ITERATIONS
--------------
ITER       Energy         Delta-E        Max-DP      RMS-DP      [F,P]     Damp
               ***  Starting incremental Fock matrix formation  ***
  0  -3451.6394570683   0.000000000000 0.50745430  0.00259835  0.3911608 0.7000
  1  -3451.8564433982  -0.216986329895 0.33557423  0.00198460  0.2815363 0.7000
                               ***Turning on DIIS***
  2  -3451.9502434540  -0.093800055796 0.23546310  0.00150511  0.1998726 0.7000
  3  -3452.0113579864  -0.061114532326 0.19287330  0.00111580  0.1398642 0.7000
  4  -3452.0543146050  -0.042956618629 0.43872114  0.00252989  0.0971434 0.0000
  5  -3452.1547199508  -0.100405345788 0.05032079  0.00020043  0.0048283 0.0000
  6  -3452.1551313015  -0.000411350699 0.01075257  0.00005643  0.0035065 0.0000
  7  -3452.1552747156  -0.000143414100 0.01716002  0.00007962  0.0021113 0.0000
  8  -3452.1553340339  -0.000059318281 0.01129062  0.00003542  0.0012879 0.0000
  9  -3452.1553559216  -0.000021887734 0.00991636  0.00004156  0.0003267 0.0000
 10  -3452.1553618315  -0.000005909921 0.00609437  0.00003114  0.0002286 0.0000
                 **** Energy Check signals convergence ****

               *****************************************************
               *                     SUCCESS                       *
               *           SCF CONVERGED AFTER  11 CYCLES          *
               *****************************************************


Setting up the DFT-NL grid :

General Integration Accuracy     IntAcc      ...  4.340
Radial Grid Type                 RadialGrid  ... Gauss-Chebyshev
Angular Grid (max. acc.)         AngularGrid ... Lebedev-110
Angular grid pruning method      GridPruning ... 3 (G Style)
Weight generation scheme         WeightScheme... Becke
Basis function cutoff            BFCut       ...    1.0000e-10
Integration weight cutoff        WCut        ...    1.0000e-14
Grids for H and He will be reduced by one unit

# of grid points (after initial pruning)     ...  37972 (   0.0 sec)
# of grid points (after weights+screening)   ...  34949 (   0.0 sec)
nearest neighbour list constructed           ...    0.0 sec
Grid point re-assignment to atoms done       ...    0.0 sec
Grid point division into batches done        ...    0.0 sec
Reduced shell lists constructed in    0.1 sec

Total number of grid points                  ...    34949
Total number of batches                      ...      560
Average number of points per batch           ...       62
Average number of grid points per atom       ...     1398
Average number of shells per batch           ...   181.76 (62.03%)
Average number of basis functions per batch  ...   528.40 (64.05%)
Average number of large shells per batch     ...   142.08 (78.17%)
Average number of large basis fcns per batch ...   416.48 (78.82%)
Maximum spatial batch extension              ...   2.17,  2.21,  1.95 au
Average spatial batch extension              ...   0.06,  0.07,  0.06 au

Final grid set up in    0.1 sec

-------------------------------------------------------------------------------
                         DFT-NL dispersion correction                          
-------------------------------------------------------------------------------

SC Energy -3452.155362300 
NL    Energy 0.613190178 
SC+NL Energy -3451.542172122 
NL done in    0.4 sec
-------------------------------------------------------------------------------

----------------
TOTAL SCF ENERGY
----------------

Total Energy       :        -3451.54217212 Eh          -93921.23737 eV

Components:
Nuclear Repulsion  :         1745.90776402 Eh           47508.56555 eV
Electronic Energy  :        -5197.44993614 Eh         -141429.80291 eV
One Electron Energy:        -8284.19914678 Eh         -225424.51914 eV
Two Electron Energy:         3086.74921063 Eh           83994.71623 eV

Virial components:
Potential Energy   :        -6846.48765256 Eh         -186302.40046 eV
Kinetic Energy     :         3394.94548043 Eh           92381.16309 eV
Virial Ratio       :            2.01667087


DFT components:
N(Alpha)           :       79.999984407746 electrons
N(Beta)            :       79.999984407746 electrons
N(Total)           :      159.999968815492 electrons
E(X)               :     -146.163246763094 Eh       
E(C)               :       -6.264669485429 Eh       
NL Energy, E(C,NL) :        0.613190177781 Eh       
E(XC)              :     -151.814726070741 Eh       
DFET-embed. en.    :        0.000000000000 Eh       

---------------
SCF CONVERGENCE
---------------

  Last Energy change         ...   -4.6815e-07  Tolerance :   1.0000e-06
  Last MAX-Density change    ...    1.2965e-02  Tolerance :   1.0000e-05
  Last RMS-Density change    ...    6.4892e-05  Tolerance :   1.0000e-06
  Last DIIS Error            ...    1.2714e-04  Tolerance :   1.0000e-06

             **** THE GBW FILE WAS UPDATED (TMB20_C1.gbw) ****
             **** DENSITY FILE WAS UPDATED (TMB20_C1.scfp) ****
             **** ENERGY FILE WAS UPDATED (TMB20_C1.en.tmp) ****
             **** THE GBW FILE WAS UPDATED (TMB20_C1.gbw) ****
             **** DENSITY FILE WAS UPDATED (TMB20_C1.scfp) ****
----------------
ORBITAL ENERGIES
----------------

  NO   OCC          E(Eh)            E(eV) 
   0   2.0000    -483.439737    -13155.0640 
   1   2.0000     -62.744944     -1707.3767 
   2   2.0000     -56.431291     -1535.5735 
   3   2.0000     -56.429837     -1535.5339 
   4   2.0000     -56.429696     -1535.5301 
   5   2.0000     -19.435376      -528.8635 
   6   2.0000     -19.419048      -528.4192 
   7   2.0000     -19.412476      -528.2403 
   8   2.0000     -19.402533      -527.9698 
   9   2.0000     -19.392221      -527.6892 
  10   2.0000     -19.376862      -527.2712 
  11   2.0000     -10.539313      -286.7893 
  12   2.0000     -10.468774      -284.8698 
  13   2.0000     -10.468669      -284.8670 
  14   2.0000     -10.467472      -284.8344 
  15   2.0000     -10.453621      -284.4575 
  16   2.0000     -10.436665      -283.9961 
  17   2.0000     -10.391458      -282.7659 
  18   2.0000     -10.381920      -282.5064 
  19   2.0000     -10.370412      -282.1933 
  20   2.0000      -8.827118      -240.1981 
  21   2.0000      -6.609390      -179.8506 
  22   2.0000      -6.604331      -179.7130 
  23   2.0000      -6.603890      -179.7010 
  24   2.0000      -3.336743       -90.7974 
  25   2.0000      -2.690955       -73.2246 
  26   2.0000      -2.689623       -73.1884 
  27   2.0000      -2.689298       -73.1795 
  28   2.0000      -2.685310       -73.0710 
  29   2.0000      -2.685298       -73.0707 
  30   2.0000      -1.891854       -51.4800 
  31   2.0000      -1.890059       -51.4311 
  32   2.0000      -1.886639       -51.3381 
  33   2.0000      -1.313971       -35.7550 
  34   2.0000      -1.269277       -34.5388 
  35   2.0000      -1.259185       -34.2642 
  36   2.0000      -1.248768       -33.9807 
  37   2.0000      -1.237819       -33.6828 
  38   2.0000      -1.206860       -32.8403 
  39   2.0000      -0.957467       -26.0540 
  40   2.0000      -0.924243       -25.1499 
  41   2.0000      -0.888942       -24.1893 
  42   2.0000      -0.824193       -22.4274 
  43   2.0000      -0.785548       -21.3758 
  44   2.0000      -0.778461       -21.1830 
  45   2.0000      -0.712342       -19.3838 
  46   2.0000      -0.702228       -19.1086 
  47   2.0000      -0.696347       -18.9486 
  48   2.0000      -0.683212       -18.5911 
  49   2.0000      -0.678118       -18.4525 
  50   2.0000      -0.658507       -17.9189 
  51   2.0000      -0.655729       -17.8433 
  52   2.0000      -0.641784       -17.4638 
  53   2.0000      -0.626369       -17.0444 
  54   2.0000      -0.604970       -16.4621 
  55   2.0000      -0.593237       -16.1428 
  56   2.0000      -0.584183       -15.8964 
  57   2.0000      -0.580561       -15.7979 
  58   2.0000      -0.578983       -15.7549 
  59   2.0000      -0.576120       -15.6770 
  60   2.0000      -0.572974       -15.5914 
  61   2.0000      -0.567696       -15.4478 
  62   2.0000      -0.562318       -15.3015 
  63   2.0000      -0.559234       -15.2175 
  64   2.0000      -0.550357       -14.9760 
  65   2.0000      -0.547741       -14.9048 
  66   2.0000      -0.540182       -14.6991 
  67   2.0000      -0.529647       -14.4124 
  68   2.0000      -0.509834       -13.8733 
  69   2.0000      -0.480297       -13.0695 
  70   2.0000      -0.452208       -12.3052 
  71   2.0000      -0.447326       -12.1723 
  72   2.0000      -0.430259       -11.7080 
  73   2.0000      -0.383857       -10.4453 
  74   2.0000      -0.374378       -10.1873 
  75   2.0000      -0.370367       -10.0782 
  76   2.0000      -0.365319        -9.9408 
  77   2.0000      -0.319620        -8.6973 
  78   2.0000      -0.318487        -8.6665 
  79   2.0000      -0.309085        -8.4106 
  80   0.0000      -0.004197        -0.1142 
  81   0.0000       0.013969         0.3801 
  82   0.0000       0.016512         0.4493 
  83   0.0000       0.024246         0.6598 
  84   0.0000       0.036490         0.9929 
  85   0.0000       0.037084         1.0091 
  86   0.0000       0.041411         1.1269 
  87   0.0000       0.046943         1.2774 
  88   0.0000       0.052263         1.4221 
  89   0.0000       0.054514         1.4834 
  90   0.0000       0.058375         1.5885 
  91   0.0000       0.065049         1.7701 
  92   0.0000       0.066876         1.8198 
  93   0.0000       0.070630         1.9219 
  94   0.0000       0.073931         2.0118 
  95   0.0000       0.078063         2.1242 
  96   0.0000       0.080357         2.1866 
  97   0.0000       0.083905         2.2832 
  98   0.0000       0.090088         2.4514 
  99   0.0000       0.093834         2.5534 
 100   0.0000       0.096258         2.6193 
 101   0.0000       0.097804         2.6614 
 102   0.0000       0.104315         2.8386 
 103   0.0000       0.108316         2.9474 
 104   0.0000       0.108575         2.9545 
 105   0.0000       0.112721         3.0673 
 106   0.0000       0.113197         3.0802 
 107   0.0000       0.116333         3.1656 
 108   0.0000       0.121464         3.3052 
 109   0.0000       0.127601         3.4722 
 110   0.0000       0.131019         3.5652 
 111   0.0000       0.136040         3.7018 
 112   0.0000       0.139088         3.7848 
 113   0.0000       0.144079         3.9206 
 114   0.0000       0.144470         3.9312 
 115   0.0000       0.150743         4.1019 
 116   0.0000       0.155175         4.2225 
 117   0.0000       0.160936         4.3793 
 118   0.0000       0.162870         4.4319 
 119   0.0000       0.166561         4.5324 
 120   0.0000       0.167861         4.5677 
 121   0.0000       0.170978         4.6525 
 122   0.0000       0.175353         4.7716 
 123   0.0000       0.180560         4.9133 
 124   0.0000       0.184515         5.0209 
 125   0.0000       0.191232         5.2037 
 126   0.0000       0.192005         5.2247 
 127   0.0000       0.197593         5.3768 
 128   0.0000       0.199687         5.4338 
 129   0.0000       0.204944         5.5768 
 130   0.0000       0.206247         5.6123 
 131   0.0000       0.210662         5.7324 
 132   0.0000       0.215325         5.8593 
 133   0.0000       0.222233         6.0473 
 134   0.0000       0.229236         6.2378 
 135   0.0000       0.231749         6.3062 
 136   0.0000       0.240495         6.5442 
 137   0.0000       0.241936         6.5834 
 138   0.0000       0.246717         6.7135 
 139   0.0000       0.250579         6.8186 
 140   0.0000       0.252029         6.8581 
 141   0.0000       0.257654         7.0111 
 142   0.0000       0.260871         7.0987 
 143   0.0000       0.263358         7.1663 
 144   0.0000       0.267100         7.2682 
 145   0.0000       0.271210         7.3800 
 146   0.0000       0.271656         7.3921 
 147   0.0000       0.281185         7.6514 
 148   0.0000       0.282366         7.6836 
 149   0.0000       0.284723         7.7477 
 150   0.0000       0.289403         7.8751 
 151   0.0000       0.291193         7.9238 
 152   0.0000       0.295097         8.0300 
 153   0.0000       0.298824         8.1314 
 154   0.0000       0.301669         8.2088 
 155   0.0000       0.304467         8.2850 
 156   0.0000       0.305664         8.3175 
 157   0.0000       0.308367         8.3911 
 158   0.0000       0.312534         8.5045 
 159   0.0000       0.313919         8.5422 
 160   0.0000       0.315266         8.5788 
 161   0.0000       0.317673         8.6443 
 162   0.0000       0.323957         8.8153 
 163   0.0000       0.326484         8.8841 
 164   0.0000       0.328089         8.9277 
 165   0.0000       0.331292         9.0149 
 166   0.0000       0.333175         9.0662 
 167   0.0000       0.335963         9.1420 
 168   0.0000       0.344469         9.3735 
 169   0.0000       0.347918         9.4673 
 170   0.0000       0.349712         9.5162 
 171   0.0000       0.353941         9.6312 
 172   0.0000       0.360458         9.8085 
 173   0.0000       0.364139         9.9087 
 174   0.0000       0.368366        10.0237 
 175   0.0000       0.371099        10.0981 
 176   0.0000       0.374862        10.2005 
 177   0.0000       0.378131        10.2895 
 178   0.0000       0.382284        10.4025 
 179   0.0000       0.385440        10.4883 
 180   0.0000       0.387449        10.5430 
 181   0.0000       0.388549        10.5730 
 182   0.0000       0.392104        10.6697 
 183   0.0000       0.394935        10.7467 
 184   0.0000       0.400317        10.8932 
 185   0.0000       0.407517        11.0891 
 186   0.0000       0.412276        11.2186 
 187   0.0000       0.413702        11.2574 
 188   0.0000       0.415423        11.3042 
 189   0.0000       0.422477        11.4962 
 190   0.0000       0.423179        11.5153 
 191   0.0000       0.426745        11.6123 
 192   0.0000       0.429932        11.6990 
 193   0.0000       0.435046        11.8382 
 194   0.0000       0.436387        11.8747 
 195   0.0000       0.438628        11.9357 
 196   0.0000       0.444251        12.0887 
 197   0.0000       0.445830        12.1317 
 198   0.0000       0.453814        12.3489 
 199   0.0000       0.459897        12.5144 
 200   0.0000       0.462466        12.5843 
 201   0.0000       0.466553        12.6955 
 202   0.0000       0.468676        12.7533 
 203   0.0000       0.474924        12.9233 
 204   0.0000       0.478290        13.0149 
 205   0.0000       0.479950        13.0601 
 206   0.0000       0.484073        13.1723 
 207   0.0000       0.491432        13.3725 
 208   0.0000       0.492643        13.4055 
 209   0.0000       0.497508        13.5379 
 210   0.0000       0.504480        13.7276 
 211   0.0000       0.506539        13.7836 
 212   0.0000       0.516061        14.0427 
 213   0.0000       0.518476        14.1084 
 214   0.0000       0.520871        14.1736 
 215   0.0000       0.534115        14.5340 
 216   0.0000       0.536308        14.5937 
 217   0.0000       0.541720        14.7410 
 218   0.0000       0.543414        14.7870 
 219   0.0000       0.545908        14.8549 
 220   0.0000       0.553765        15.0687 
 221   0.0000       0.556580        15.1453 
 222   0.0000       0.556875        15.1533 
 223   0.0000       0.559412        15.2224 
 224   0.0000       0.563424        15.3315 
 225   0.0000       0.567624        15.4458 
 226   0.0000       0.575713        15.6660 
 227   0.0000       0.579299        15.7635 
 228   0.0000       0.584616        15.9082 
 229   0.0000       0.586350        15.9554 
 230   0.0000       0.591754        16.1024 
 231   0.0000       0.593901        16.1609 
 232   0.0000       0.597910        16.2700 
 233   0.0000       0.602496        16.3948 
 234   0.0000       0.605827        16.4854 
 235   0.0000       0.609646        16.5893 
 236   0.0000       0.611284        16.6339 
 237   0.0000       0.617998        16.8166 
 238   0.0000       0.623453        16.9650 
 239   0.0000       0.625791        17.0286 
 240   0.0000       0.629606        17.1325 
 241   0.0000       0.635326        17.2881 
 242   0.0000       0.639109        17.3910 
 243   0.0000       0.640999        17.4425 
 244   0.0000       0.647918        17.6307 
 245   0.0000       0.655218        17.8294 
 246   0.0000       0.656043        17.8518 
 247   0.0000       0.660229        17.9657 
 248   0.0000       0.664213        18.0741 
 249   0.0000       0.666343        18.1321 
 250   0.0000       0.668691        18.1960 
 251   0.0000       0.671649        18.2765 
 252   0.0000       0.674465        18.3531 
 253   0.0000       0.675966        18.3940 
 254   0.0000       0.684946        18.6383 
 255   0.0000       0.691728        18.8229 
 256   0.0000       0.692797        18.8520 
 257   0.0000       0.698235        19.0000 
 258   0.0000       0.701351        19.0847 
 259   0.0000       0.707591        19.2545 
 260   0.0000       0.713687        19.4204 
 261   0.0000       0.716084        19.4856 
 262   0.0000       0.717206        19.5162 
 263   0.0000       0.720629        19.6093 
 264   0.0000       0.724854        19.7243 
 265   0.0000       0.729253        19.8440 
 266   0.0000       0.731744        19.9118 
 267   0.0000       0.736621        20.0445 
 268   0.0000       0.745216        20.2783 
 269   0.0000       0.746350        20.3092 
 270   0.0000       0.749388        20.3919 
 271   0.0000       0.755298        20.5527 
 272   0.0000       0.757575        20.6147 
 273   0.0000       0.761883        20.7319 
 274   0.0000       0.766929        20.8692 
 275   0.0000       0.769363        20.9354 
 276   0.0000       0.770840        20.9756 
 277   0.0000       0.774628        21.0787 
 278   0.0000       0.777939        21.1688 
 279   0.0000       0.785275        21.3684 
 280   0.0000       0.789514        21.4838 
 281   0.0000       0.792150        21.5555 
 282   0.0000       0.793714        21.5981 
 283   0.0000       0.800609        21.7857 
 284   0.0000       0.807940        21.9852 
 285   0.0000       0.808808        22.0088 
 286   0.0000       0.813402        22.1338 
 287   0.0000       0.815550        22.1922 
 288   0.0000       0.821931        22.3659 
 289   0.0000       0.824783        22.4435 
 290   0.0000       0.832182        22.6448 
 291   0.0000       0.833303        22.6753 
 292   0.0000       0.839242        22.8369 
 293   0.0000       0.843796        22.9609 
 294   0.0000       0.847434        23.0599 
 295   0.0000       0.858018        23.3479 
 296   0.0000       0.861598        23.4453 
 297   0.0000       0.865094        23.5404 
 298   0.0000       0.877716        23.8839 
 299   0.0000       0.884768        24.0758 
 300   0.0000       0.893581        24.3156 
 301   0.0000       0.896280        24.3890 
 302   0.0000       0.900175        24.4950 
 303   0.0000       0.904918        24.6241 
 304   0.0000       0.914393        24.8819 
 305   0.0000       0.918535        24.9946 
 306   0.0000       0.923332        25.1251 
 307   0.0000       0.925991        25.1975 
 308   0.0000       0.931232        25.3401 
 309   0.0000       0.933769        25.4091 
 310   0.0000       0.944739        25.7076 
 311   0.0000       0.949936        25.8491 
 312   0.0000       0.958587        26.0845 
 313   0.0000       0.963239        26.2111 
 314   0.0000       0.967203        26.3189 
 315   0.0000       0.973168        26.4813 
 316   0.0000       0.980335        26.6763 
 317   0.0000       0.983742        26.7690 
 318   0.0000       0.988091        26.8873 
 319   0.0000       0.993456        27.0333 
 320   0.0000       1.001216        27.2445 
 321   0.0000       1.005151        27.3516 
 322   0.0000       1.012909        27.5627 
 323   0.0000       1.019525        27.7427 
 324   0.0000       1.024990        27.8914 
 325   0.0000       1.028056        27.9748 
 326   0.0000       1.035592        28.1799 
 327   0.0000       1.039286        28.2804 
 328   0.0000       1.042637        28.3716 
 329   0.0000       1.053249        28.6604 
 330   0.0000       1.062648        28.9161 
 331   0.0000       1.072518        29.1847 
 332   0.0000       1.077540        29.3214 
 333   0.0000       1.081183        29.4205 
 334   0.0000       1.084109        29.5001 
 335   0.0000       1.087445        29.5909 
 336   0.0000       1.098919        29.9031 
 337   0.0000       1.104602        30.0577 
 338   0.0000       1.115491        30.3540 
 339   0.0000       1.118573        30.4379 
 340   0.0000       1.125691        30.6316 
 341   0.0000       1.129533        30.7362 
 342   0.0000       1.132267        30.8106 
 343   0.0000       1.151084        31.3226 
 344   0.0000       1.157013        31.4839 
 345   0.0000       1.164908        31.6988 
 346   0.0000       1.167544        31.7705 
 347   0.0000       1.177305        32.0361 
 348   0.0000       1.179665        32.1003 
 349   0.0000       1.185318        32.2541 
 350   0.0000       1.190352        32.3911 
 351   0.0000       1.203911        32.7601 
 352   0.0000       1.208148        32.8754 
 353   0.0000       1.214574        33.0502 
 354   0.0000       1.216700        33.1081 
 355   0.0000       1.229732        33.4627 
 356   0.0000       1.238955        33.7137 
 357   0.0000       1.251772        34.0625 
 358   0.0000       1.261861        34.3370 
 359   0.0000       1.268208        34.5097 
 360   0.0000       1.279960        34.8295 
 361   0.0000       1.286553        35.0089 
 362   0.0000       1.296512        35.2799 
 363   0.0000       1.308805        35.6144 
 364   0.0000       1.316190        35.8153 
 365   0.0000       1.318186        35.8697 
 366   0.0000       1.326532        36.0968 
 367   0.0000       1.332151        36.2497 
 368   0.0000       1.339299        36.4442 
 369   0.0000       1.347857        36.6771 
 370   0.0000       1.357755        36.9464 
 371   0.0000       1.363662        37.1071 
 372   0.0000       1.366516        37.1848 
 373   0.0000       1.379482        37.5376 
 374   0.0000       1.381299        37.5871 
 375   0.0000       1.395334        37.9690 
 376   0.0000       1.402780        38.1716 
 377   0.0000       1.409620        38.3577 
 378   0.0000       1.412669        38.4407 
 379   0.0000       1.418847        38.6088 
 380   0.0000       1.422725        38.7143 
 381   0.0000       1.427638        38.8480 
 382   0.0000       1.438555        39.1451 
 383   0.0000       1.445146        39.3244 
 384   0.0000       1.464484        39.8506 
 385   0.0000       1.465708        39.8839 
 386   0.0000       1.467622        39.9360 
 387   0.0000       1.480012        40.2732 
 388   0.0000       1.484828        40.4042 
 389   0.0000       1.491674        40.5905 
 390   0.0000       1.512746        41.1639 
 391   0.0000       1.525884        41.5214 
 392   0.0000       1.532644        41.7054 
 393   0.0000       1.539287        41.8861 
 394   0.0000       1.547988        42.1229 
 395   0.0000       1.561495        42.4904 
 396   0.0000       1.568327        42.6763 
 397   0.0000       1.582293        43.0564 
 398   0.0000       1.600537        43.5528 
 399   0.0000       1.607342        43.7380 
 400   0.0000       1.626818        44.2680 
 401   0.0000       1.632818        44.4312 
 402   0.0000       1.636429        44.5295 
 403   0.0000       1.645710        44.7820 
 404   0.0000       1.652918        44.9782 
 405   0.0000       1.679216        45.6938 
 406   0.0000       1.681206        45.7480 
 407   0.0000       1.689828        45.9826 
 408   0.0000       1.693261        46.0760 
 409   0.0000       1.699828        46.2547 
 410   0.0000       1.713956        46.6391 
 411   0.0000       1.721986        46.8576 
 412   0.0000       1.730809        47.0977 
 413   0.0000       1.735125        47.2151 
 414   0.0000       1.741319        47.3837 
 415   0.0000       1.749595        47.6089 
 416   0.0000       1.756231        47.7895 
 417   0.0000       1.763289        47.9815 
 418   0.0000       1.770799        48.1859 
 419   0.0000       1.785695        48.5912 
 420   0.0000       1.799743        48.9735 
 421   0.0000       1.805834        49.1392 
 422   0.0000       1.815444        49.4007 
 423   0.0000       1.828235        49.7488 
 424   0.0000       1.829993        49.7966 
 425   0.0000       1.838106        50.0174 
 426   0.0000       1.839410        50.0529 
 427   0.0000       1.849544        50.3287 
 428   0.0000       1.860281        50.6208 
 429   0.0000       1.867912        50.8285 
 430   0.0000       1.878056        51.1045 
 431   0.0000       1.885227        51.2996 
 432   0.0000       1.887526        51.3622 
 433   0.0000       1.894143        51.5422 
 434   0.0000       1.897916        51.6449 
 435   0.0000       1.903652        51.8010 
 436   0.0000       1.905862        51.8612 
 437   0.0000       1.921021        52.2736 
 438   0.0000       1.926304        52.4174 
 439   0.0000       1.932301        52.5806 
 440   0.0000       1.939449        52.7751 
 441   0.0000       1.941978        52.8439 
 442   0.0000       1.954397        53.1818 
 443   0.0000       1.961522        53.3757 
 444   0.0000       1.974868        53.7389 
 445   0.0000       1.981140        53.9096 
 446   0.0000       1.991164        54.1823 
 447   0.0000       1.998150        54.3724 
 448   0.0000       2.011755        54.7426 
 449   0.0000       2.014075        54.8058 
 450   0.0000       2.023764        55.0694 
 451   0.0000       2.031704        55.2855 
 452   0.0000       2.035582        55.3910 
 453   0.0000       2.054687        55.9109 
 454   0.0000       2.072175        56.3868 
 455   0.0000       2.074319        56.4451 
 456   0.0000       2.080912        56.6245 
 457   0.0000       2.089604        56.8610 
 458   0.0000       2.097875        57.0861 
 459   0.0000       2.110909        57.4408 
 460   0.0000       2.115498        57.5656 
 461   0.0000       2.135979        58.1230 
 462   0.0000       2.142628        58.3039 
 463   0.0000       2.150510        58.5183 
 464   0.0000       2.164625        58.9025 
 465   0.0000       2.171721        59.0955 
 466   0.0000       2.172878        59.1270 
 467   0.0000       2.193551        59.6895 
 468   0.0000       2.205799        60.0228 
 469   0.0000       2.212248        60.1983 
 470   0.0000       2.214545        60.2608 
 471   0.0000       2.234874        60.8140 
 472   0.0000       2.248146        61.1752 
 473   0.0000       2.256462        61.4015 
 474   0.0000       2.285231        62.1843 
 475   0.0000       2.291944        62.3670 
 476   0.0000       2.304379        62.7054 
 477   0.0000       2.309843        62.8540 
 478   0.0000       2.315670        63.0126 
 479   0.0000       2.319162        63.1076 
 480   0.0000       2.328509        63.3619 
 481   0.0000       2.342250        63.7359 
 482   0.0000       2.345058        63.8123 
 483   0.0000       2.357490        64.1506 
 484   0.0000       2.387698        64.9726 
 485   0.0000       2.394656        65.1619 
 486   0.0000       2.416347        65.7521 
 487   0.0000       2.440777        66.4169 
 488   0.0000       2.462371        67.0045 
 489   0.0000       2.467521        67.1447 
 490   0.0000       2.483967        67.5922 
 491   0.0000       2.493642        67.8555 
 492   0.0000       2.497594        67.9630 
 493   0.0000       2.508828        68.2687 
 494   0.0000       2.523962        68.6805 
 495   0.0000       2.542020        69.1719 
 496   0.0000       2.548987        69.3615 
 497   0.0000       2.557757        69.6001 
 498   0.0000       2.572747        70.0080 
 499   0.0000       2.580813        70.2275 
 500   0.0000       2.612359        71.0859 
 501   0.0000       2.624009        71.4029 
 502   0.0000       2.641474        71.8782 
 503   0.0000       2.655024        72.2469 
 504   0.0000       2.665517        72.5324 
 505   0.0000       2.680570        72.9420 
 506   0.0000       2.697878        73.4130 
 507   0.0000       2.710864        73.7664 
 508   0.0000       2.726559        74.1934 
 509   0.0000       2.733811        74.3908 
 510   0.0000       2.743470        74.6536 
 511   0.0000       2.749631        74.8213 
 512   0.0000       2.759515        75.0902 
 513   0.0000       2.769034        75.3493 
 514   0.0000       2.771553        75.4178 
 515   0.0000       2.780944        75.6733 
 516   0.0000       2.794167        76.0331 
 517   0.0000       2.804477        76.3137 
 518   0.0000       2.807040        76.3834 
 519   0.0000       2.808899        76.4340 
 520   0.0000       2.823636        76.8350 
 521   0.0000       2.834020        77.1176 
 522   0.0000       2.842836        77.3575 
 523   0.0000       2.852704        77.6260 
 524   0.0000       2.855487        77.7018 
 525   0.0000       2.867234        78.0214 
 526   0.0000       2.876949        78.2858 
 527   0.0000       2.893245        78.7292 
 528   0.0000       2.900806        78.9349 
 529   0.0000       2.907155        79.1077 
 530   0.0000       2.916070        79.3503 
 531   0.0000       2.930141        79.7332 
 532   0.0000       2.941039        80.0297 
 533   0.0000       2.944060        80.1119 
 534   0.0000       2.950947        80.2994 
 535   0.0000       2.956534        80.4514 
 536   0.0000       2.961943        80.5986 
 537   0.0000       2.971930        80.8703 
 538   0.0000       2.993390        81.4543 
 539   0.0000       3.002688        81.7073 
 540   0.0000       3.008157        81.8561 
 541   0.0000       3.017587        82.1127 
 542   0.0000       3.026381        82.3520 
 543   0.0000       3.035324        82.5954 
 544   0.0000       3.043639        82.8216 
 545   0.0000       3.065805        83.4248 
 546   0.0000       3.069929        83.5370 
 547   0.0000       3.077227        83.7356 
 548   0.0000       3.087243        84.0082 
 549   0.0000       3.094637        84.2094 
 550   0.0000       3.100193        84.3605 
 551   0.0000       3.113908        84.7338 
 552   0.0000       3.121338        84.9359 
 553   0.0000       3.131484        85.2120 
 554   0.0000       3.136891        85.3591 
 555   0.0000       3.149973        85.7151 
 556   0.0000       3.159335        85.9699 
 557   0.0000       3.168415        86.2170 
 558   0.0000       3.179153        86.5092 
 559   0.0000       3.193918        86.9109 
 560   0.0000       3.200645        87.0940 
 561   0.0000       3.212716        87.4224 
 562   0.0000       3.215913        87.5094 
 563   0.0000       3.228726        87.8581 
 564   0.0000       3.231374        87.9302 
 565   0.0000       3.241412        88.2033 
 566   0.0000       3.249389        88.4204 
 567   0.0000       3.252759        88.5121 
 568   0.0000       3.257767        88.6484 
 569   0.0000       3.267263        88.9067 
 570   0.0000       3.275694        89.1362 
 571   0.0000       3.284396        89.3730 
 572   0.0000       3.290869        89.5491 
 573   0.0000       3.292178        89.5847 
 574   0.0000       3.296118        89.6919 
 575   0.0000       3.306946        89.9866 
 576   0.0000       3.313234        90.1577 
 577   0.0000       3.321267        90.3763 
 578   0.0000       3.333424        90.7071 
 579   0.0000       3.338011        90.8319 
 580   0.0000       3.351173        91.1901 
 581   0.0000       3.354893        91.2913 
 582   0.0000       3.359640        91.4204 
 583   0.0000       3.363471        91.5247 
 584   0.0000       3.378798        91.9418 
 585   0.0000       3.384078        92.0854 
 586   0.0000       3.393052        92.3297 
 587   0.0000       3.395899        92.4071 
 588   0.0000       3.408129        92.7399 
 589   0.0000       3.417634        92.9985 
 590   0.0000       3.425651        93.2167 
 591   0.0000       3.429851        93.3310 
 592   0.0000       3.442085        93.6639 
 593   0.0000       3.452749        93.9541 
 594   0.0000       3.458525        94.1112 
 595   0.0000       3.469199        94.4017 
 596   0.0000       3.479663        94.6864 
 597   0.0000       3.484477        94.8175 
 598   0.0000       3.493993        95.0764 
 599   0.0000       3.512011        95.5667 
 600   0.0000       3.522719        95.8580 
 601   0.0000       3.525547        95.9350 
 602   0.0000       3.533562        96.1531 
 603   0.0000       3.546141        96.4954 
 604   0.0000       3.550154        96.6046 
 605   0.0000       3.555370        96.7465 
 606   0.0000       3.559801        96.8671 
 607   0.0000       3.564717        97.0009 
 608   0.0000       3.571811        97.1939 
 609   0.0000       3.583056        97.4999 
 610   0.0000       3.586464        97.5926 
 611   0.0000       3.599977        97.9604 
 612   0.0000       3.607995        98.1785 
 613   0.0000       3.612478        98.3005 
 614   0.0000       3.618039        98.4519 
 615   0.0000       3.624879        98.6380 
 616   0.0000       3.633220        98.8649 
 617   0.0000       3.639027        99.0230 
 618   0.0000       3.643685        99.1497 
 619   0.0000       3.662707        99.6673 
 620   0.0000       3.665788        99.7512 
 621   0.0000       3.674645        99.9922 
 622   0.0000       3.691101       100.4400 
 623   0.0000       3.705301       100.8264 
 624   0.0000       3.718384       101.1824 
 625   0.0000       3.733900       101.6046 
 626   0.0000       3.759412       102.2988 
 627   0.0000       3.778125       102.8080 
 628   0.0000       3.783673       102.9590 
 629   0.0000       3.803276       103.4924 
 630   0.0000       3.830459       104.2321 
 631   0.0000       3.846529       104.6694 
 632   0.0000       3.863342       105.1269 
 633   0.0000       3.866488       105.2125 
 634   0.0000       3.879837       105.5757 
 635   0.0000       3.891072       105.8814 
 636   0.0000       3.897567       106.0582 
 637   0.0000       3.904174       106.2380 
 638   0.0000       3.912447       106.4631 
 639   0.0000       3.935270       107.0841 
 640   0.0000       3.939048       107.1869 
 641   0.0000       3.947503       107.4170 
 642   0.0000       3.979543       108.2889 
 643   0.0000       3.997300       108.7720 
 644   0.0000       4.019740       109.3827 
 645   0.0000       4.022902       109.4687 
 646   0.0000       4.033749       109.7639 
 647   0.0000       4.046937       110.1228 
 648   0.0000       4.071321       110.7863 
 649   0.0000       4.083808       111.1261 
 650   0.0000       4.091969       111.3481 
 651   0.0000       4.098731       111.5321 
 652   0.0000       4.116613       112.0187 
 653   0.0000       4.124549       112.2347 
 654   0.0000       4.128514       112.3426 
 655   0.0000       4.131820       112.4325 
 656   0.0000       4.150903       112.9518 
 657   0.0000       4.169138       113.4480 
 658   0.0000       4.177911       113.6867 
 659   0.0000       4.183473       113.8381 
 660   0.0000       4.187530       113.9485 
 661   0.0000       4.199758       114.2812 
 662   0.0000       4.209780       114.5539 
 663   0.0000       4.228831       115.0723 
 664   0.0000       4.231153       115.1355 
 665   0.0000       4.266771       116.1047 
 666   0.0000       4.271114       116.2229 
 667   0.0000       4.295982       116.8996 
 668   0.0000       4.301528       117.0505 
 669   0.0000       4.313677       117.3811 
 670   0.0000       4.339774       118.0913 
 671   0.0000       4.350801       118.3913 
 672   0.0000       4.357466       118.5727 
 673   0.0000       4.366833       118.8276 
 674   0.0000       4.368991       118.8863 
 675   0.0000       4.411847       120.0525 
 676   0.0000       4.441677       120.8642 
 677   0.0000       4.449743       121.0837 
 678   0.0000       4.468769       121.6014 
 679   0.0000       4.482334       121.9705 
 680   0.0000       4.489146       122.1559 
 681   0.0000       4.492142       122.2374 
 682   0.0000       4.505544       122.6021 
 683   0.0000       4.513308       122.8134 
 684   0.0000       4.533750       123.3696 
 685   0.0000       4.543843       123.6442 
 686   0.0000       4.559830       124.0793 
 687   0.0000       4.576460       124.5318 
 688   0.0000       4.633176       126.0751 
 689   0.0000       4.639628       126.2507 
 690   0.0000       4.641361       126.2979 
 691   0.0000       4.672084       127.1339 
 692   0.0000       4.694770       127.7512 
 693   0.0000       4.704824       128.0248 
 694   0.0000       4.747238       129.1789 
 695   0.0000       4.770116       129.8014 
 696   0.0000       4.778606       130.0325 
 697   0.0000       4.811214       130.9198 
 698   0.0000       4.866258       132.4176 
 699   0.0000       4.947969       134.6411 
 700   0.0000       4.957945       134.9125 
 701   0.0000       4.980146       135.5167 
 702   0.0000       5.004736       136.1858 
 703   0.0000       5.015949       136.4909 
 704   0.0000       5.016382       136.5027 
 705   0.0000       5.042266       137.2070 
 706   0.0000       5.089696       138.4977 
 707   0.0000       5.115810       139.2083 
 708   0.0000       5.150082       140.1408 
 709   0.0000       5.155269       140.2820 
 710   0.0000       5.185260       141.0981 
 711   0.0000       5.194617       141.3527 
 712   0.0000       5.210515       141.7853 
 713   0.0000       5.213028       141.8537 
 714   0.0000       5.213300       141.8611 
 715   0.0000       5.216684       141.9532 
 716   0.0000       5.221045       142.0718 
 717   0.0000       5.222479       142.1109 
 718   0.0000       5.229877       142.3122 
 719   0.0000       5.230553       142.3306 
 720   0.0000       5.237190       142.5112 
 721   0.0000       5.252817       142.9364 
 722   0.0000       5.292336       144.0118 
 723   0.0000       5.309544       144.4800 
 724   0.0000       5.316803       144.6776 
 725   0.0000       5.349034       145.5546 
 726   0.0000       5.362388       145.9180 
 727   0.0000       5.378616       146.3596 
 728   0.0000       5.406923       147.1299 
 729   0.0000       5.415400       147.3605 
 730   0.0000       5.442760       148.1050 
 731   0.0000       5.498551       149.6232 
 732   0.0000       5.507285       149.8608 
 733   0.0000       5.559166       151.2726 
 734   0.0000       5.572932       151.6472 
 735   0.0000       5.619739       152.9209 
 736   0.0000       5.625974       153.0905 
 737   0.0000       5.638309       153.4262 
 738   0.0000       5.644648       153.5987 
 739   0.0000       5.647011       153.6630 
 740   0.0000       5.656726       153.9273 
 741   0.0000       5.662323       154.0796 
 742   0.0000       5.677810       154.5011 
 743   0.0000       5.682276       154.6226 
 744   0.0000       5.692117       154.8904 
 745   0.0000       5.704670       155.2320 
 746   0.0000       5.772129       157.0676 
 747   0.0000       5.800931       157.8513 
 748   0.0000       5.863703       159.5595 
 749   0.0000       5.923126       161.1765 
 750   0.0000       6.039629       164.3466 
 751   0.0000       6.135622       166.9588 
 752   0.0000       6.150413       167.3613 
 753   0.0000       6.187894       168.3812 
 754   0.0000       6.188933       168.4094 
 755   0.0000       6.233092       169.6111 
 756   0.0000       6.331486       172.2885 
 757   0.0000       6.392830       173.9577 
 758   0.0000       6.413198       174.5120 
 759   0.0000       6.548771       178.2011 
 760   0.0000       6.556020       178.3984 
 761   0.0000       6.560415       178.5180 
 762   0.0000       6.562174       178.5658 
 763   0.0000       6.566139       178.6737 
 764   0.0000       6.572116       178.8364 
 765   0.0000       6.578913       179.0213 
 766   0.0000       6.586779       179.2354 
 767   0.0000       6.588194       179.2739 
 768   0.0000       6.594745       179.4521 
 769   0.0000       6.597701       179.5326 
 770   0.0000       6.610570       179.8828 
 771   0.0000       6.618289       180.0928 
 772   0.0000       6.636642       180.5922 
 773   0.0000       6.716313       182.7602 
 774   0.0000       6.743871       183.5101 
 775   0.0000       6.766056       184.1138 
 776   0.0000       6.768934       184.1921 
 777   0.0000       6.778585       184.4547 
 778   0.0000       6.785194       184.6345 
 779   0.0000       6.852596       186.4686 
 780   0.0000       6.877538       187.1473 
 781   0.0000       6.929349       188.5572 
 782   0.0000       6.978453       189.8934 
 783   0.0000       6.988431       190.1649 
 784   0.0000       6.997095       190.4006 
 785   0.0000       7.005486       190.6290 
 786   0.0000       7.009352       190.7342 
 787   0.0000       7.015423       190.8994 
 788   0.0000       7.021264       191.0583 
 789   0.0000       7.035549       191.4470 
 790   0.0000       7.047934       191.7840 
 791   0.0000       7.063674       192.2124 
 792   0.0000       7.144056       194.3997 
 793   0.0000       7.223883       196.5718 
 794   0.0000       7.331844       199.5096 
 795   0.0000       7.337303       199.6582 
 796   0.0000       7.345933       199.8930 
 797   0.0000       7.403946       201.4716 
 798   0.0000       7.462877       203.0752 
 799   0.0000       7.482038       203.5966 
 800   0.0000       7.524678       204.7569 
 801   0.0000       7.634528       207.7461 
 802   0.0000       7.824387       212.9124 
 803   0.0000       7.963711       216.7036 
 804   0.0000       8.203222       223.2210 
 805   0.0000      23.542202       640.6159 
 806   0.0000      23.630661       643.0230 
 807   0.0000      23.697153       644.8323 
 808   0.0000      23.735955       645.8882 
 809   0.0000      23.770791       646.8361 
 810   0.0000      23.866679       649.4454 
 811   0.0000      24.056317       654.6057 
 812   0.0000      24.123588       656.4362 
 813   0.0000      24.183793       658.0745 
 814   0.0000      44.718443      1216.8507 
 815   0.0000      44.744347      1217.5556 
 816   0.0000      44.764439      1218.1023 
 817   0.0000      44.866603      1220.8823 
 818   0.0000      44.922934      1222.4152 
 819   0.0000      45.041917      1225.6529 
 820   0.0000      49.795618      1355.0076 
 821   0.0000      50.545934      1375.4248 
 822   0.0000      50.766407      1381.4242 
 823   0.0000      68.510966      1864.2782 
 824   0.0000     512.909445     13956.9756 

                    ********************************
                    * MULLIKEN POPULATION ANALYSIS *
                    ********************************

-----------------------
MULLIKEN ATOMIC CHARGES
-----------------------
   0 Re:    0.294463
   1 C :    0.438842
   2 C :    0.729175
   3 C :    0.242280
   4 Br:   -0.567778
   5 O :   -0.461559
   6 O :   -0.365597
   7 O :   -0.448704
   8 C :   -0.317615
   9 C :   -0.198505
  10 C :   -0.805431
  11 C :    0.947449
  12 O :   -0.488871
  13 O :   -0.350665
  14 C :    0.712594
  15 O :   -0.750932
  16 H :    0.355401
  17 C :   -0.622953
  18 H :    0.210348
  19 H :    0.310011
  20 H :    0.309795
  21 H :    0.270471
  22 H :    0.130864
  23 H :    0.272247
  24 H :    0.154670
Sum of atomic charges:   -0.0000000

--------------------------------
MULLIKEN REDUCED ORBITAL CHARGES
--------------------------------
  0 Res       :     2.164217  s :     2.164217
      pz      :     2.184182  p :     6.660260
      px      :     2.452990
      py      :     2.023089
      dz2     :     0.690073  d :     5.710558
      dxz     :     1.494877
      dyz     :     1.302411
      dx2y2   :     0.951785
      dxy     :     1.271412
      f0      :     0.035654  f :     0.163860
      f+1     :     0.027176
      f-1     :     0.021006
      f+2     :     0.011586
      f-2     :     0.007379
      f+3     :     0.030014
      f-3     :     0.031045
      g0      :     0.001120  g :     0.006642
      g+1     :     0.000658
      g-1     :     0.001078
      g+2     :     0.000723
      g-2     :     0.000424
      g+3     :     0.000375
      g-3     :     0.000251
      g+4     :     0.000630
      g-4     :     0.001384
  1 C s       :     3.407598  s :     3.407598
      pz      :     0.832193  p :     2.036060
      px      :     0.601741
      py      :     0.602126
      dz2     :    -0.008792  d :     0.098133
      dxz     :     0.056016
      dyz     :     0.035517
      dx2y2   :     0.009602
      dxy     :     0.005790
      f0      :     0.006203  f :     0.019368
      f+1     :     0.005574
      f-1     :     0.005537
      f+2     :     0.000962
      f-2     :     0.000996
      f+3     :     0.000048
      f-3     :     0.000048
  2 C s       :     3.163479  s :     3.163479
      pz      :     0.593617  p :     1.995788
      px      :     0.805651
      py      :     0.596521
      dz2     :     0.003430  d :     0.091412
      dxz     :     0.051249
      dyz     :     0.005247
      dx2y2   :     0.015357
      dxy     :     0.016129
      f0      :     0.002415  f :     0.020146
      f+1     :     0.002418
      f-1     :     0.000587
      f+2     :     0.002992
      f-2     :     0.001468
      f+3     :     0.005403
      f-3     :     0.004863
  3 C s       :     3.445253  s :     3.445253
      pz      :     0.658368  p :     2.132530
      px      :     0.683138
      py      :     0.791024
      dz2     :     0.017272  d :     0.160293
      dxz     :     0.014549
      dyz     :     0.056206
      dx2y2   :     0.025334
      dxy     :     0.046932
      f0      :     0.001928  f :     0.019645
      f+1     :     0.000591
      f-1     :     0.003106
      f+2     :     0.002755
      f-2     :     0.002127
      f+3     :     0.004188
      f-3     :     0.004950
  4 Brs       :     8.042539  s :     8.042539
      pz      :     5.963438  p :    17.505705
      px      :     5.888816
      py      :     5.653451
      dz2     :     2.001772  d :    10.017261
      dxz     :     2.001312
      dyz     :     2.006143
      dx2y2   :     2.003463
      dxy     :     2.004571
      f0      :     0.000253  f :     0.002274
      f+1     :     0.000085
      f-1     :     0.000302
      f+2     :     0.000309
      f-2     :     0.000280
      f+3     :     0.000443
      f-3     :     0.000601
  5 O s       :     4.067189  s :     4.067189
      pz      :     1.499139  p :     4.348687
      px      :     1.499777
      py      :     1.349771
      dz2     :     0.004833  d :     0.043901
      dxz     :     0.001971
      dyz     :     0.012607
      dx2y2   :     0.012268
      dxy     :     0.012223
      f0      :     0.000171  f :     0.001782
      f+1     :     0.000054
      f-1     :     0.000281
      f+2     :     0.000253
      f-2     :     0.000189
      f+3     :     0.000358
      f-3     :     0.000478
  6 O s       :     4.021019  s :     4.021019
      pz      :     1.335301  p :     4.294704
      px      :     1.504695
      py      :     1.454708
      dz2     :     0.013948  d :     0.048005
      dxz     :     0.016073
      dyz     :     0.016106
      dx2y2   :     0.000770
      dxy     :     0.001107
      f0      :     0.000530  f :     0.001869
      f+1     :     0.000598
      f-1     :     0.000550
      f+2     :     0.000092
      f-2     :     0.000093
      f+3     :     0.000003
      f-3     :     0.000003
  7 O s       :     4.062933  s :     4.062933
      pz      :     1.504301  p :     4.334932
      px      :     1.342100
      py      :     1.488532
      dz2     :     0.003668  d :     0.049037
      dxz     :     0.015821
      dyz     :     0.001507
      dx2y2   :     0.012480
      dxy     :     0.015561
      f0      :     0.000240  f :     0.001802
      f+1     :     0.000178
      f-1     :     0.000052
      f+2     :     0.000285
      f-2     :     0.000134
      f+3     :     0.000491
      f-3     :     0.000421
  8 C s       :     3.435511  s :     3.435511
      pz      :     0.972139  p :     2.860275
      px      :     0.998918
      py      :     0.889218
      dz2     :    -0.002952  d :     0.014363
      dxz     :    -0.000153
      dyz     :     0.000219
      dx2y2   :     0.006767
      dxy     :     0.010481
      f0      :     0.001023  f :     0.007466
      f+1     :     0.000269
      f-1     :     0.000645
      f+2     :     0.001263
      f-2     :     0.000562
      f+3     :     0.001777
      f-3     :     0.001927
  9 C s       :     3.311920  s :     3.311920
      pz      :     0.957293  p :     2.922030
      px      :     0.958943
      py      :     1.005794
      dz2     :    -0.011091  d :    -0.042918
      dxz     :    -0.004980
      dyz     :    -0.036413
      dx2y2   :    -0.004831
      dxy     :     0.014397
      f0      :     0.000972  f :     0.007473
      f+1     :     0.000366
      f-1     :     0.000925
      f+2     :     0.001294
      f-2     :     0.000812
      f+3     :     0.001476
      f-3     :     0.001629
 10 C s       :     3.796680  s :     3.796680
      pz      :     1.224699  p :     2.979419
      px      :     0.756470
      py      :     0.998250
      dz2     :     0.008671  d :     0.022277
      dxz     :     0.017674
      dyz     :     0.018258
      dx2y2   :    -0.007833
      dxy     :    -0.014493
      f0      :     0.001605  f :     0.007054
      f+1     :     0.000761
      f-1     :     0.000717
      f+2     :     0.000398
      f-2     :     0.000393
      f+3     :     0.001000
      f-3     :     0.002180
 11 C s       :     3.007599  s :     3.007599
      pz      :     0.694238  p :     1.858585
      px      :     0.518423
      py      :     0.645924
      dz2     :    -0.001046  d :     0.161353
      dxz     :     0.074020
      dyz     :     0.059063
      dx2y2   :     0.017159
      dxy     :     0.012158
      f0      :     0.003415  f :     0.025014
      f+1     :     0.001386
      f-1     :     0.001283
      f+2     :     0.003679
      f-2     :     0.002294
      f+3     :     0.003751
      f-3     :     0.009207
 12 O s       :     4.007190  s :     4.007190
      pz      :     1.689357  p :     4.453514
      px      :     1.345982
      py      :     1.418175
      dz2     :     0.005551  d :     0.026716
      dxz     :     0.000413
      dyz     :     0.009386
      dx2y2   :     0.011739
      dxy     :    -0.000373
      f0      :     0.000258  f :     0.001451
      f+1     :     0.000172
      f-1     :     0.000250
      f+2     :     0.000074
      f-2     :     0.000142
      f+3     :     0.000305
      f-3     :     0.000251
 13 O s       :     3.929355  s :     3.929355
      pz      :     1.711738  p :     4.393328
      px      :     1.232420
      py      :     1.449170
      dz2     :     0.003448  d :     0.025799
      dxz     :     0.010405
      dyz     :    -0.000978
      dx2y2   :     0.014092
      dxy     :    -0.001168
      f0      :     0.000307  f :     0.002183
      f+1     :     0.000382
      f-1     :     0.000213
      f+2     :     0.000259
      f-2     :     0.000088
      f+3     :     0.000501
      f-3     :     0.000434
 14 C s       :     3.122954  s :     3.122954
      pz      :     0.678907  p :     1.986010
      px      :     0.559553
      py      :     0.747550
      dz2     :     0.012660  d :     0.162752
      dxz     :     0.016061
      dyz     :     0.023207
      dx2y2   :     0.092440
      dxy     :     0.018384
      f0      :     0.002174  f :     0.015691
      f+1     :     0.000750
      f-1     :     0.001026
      f+2     :     0.001571
      f-2     :     0.001769
      f+3     :     0.002367
      f-3     :     0.006034
 15 O s       :     4.016001  s :     4.016001
      pz      :     1.600724  p :     4.678859
      px      :     1.641541
      py      :     1.436594
      dz2     :     0.008110  d :     0.054344
      dxz     :     0.014924
      dyz     :     0.009078
      dx2y2   :     0.002266
      dxy     :     0.019966
      f0      :     0.000243  f :     0.001729
      f+1     :     0.000139
      f-1     :     0.000207
      f+2     :     0.000063
      f-2     :     0.000256
      f+3     :     0.000400
      f-3     :     0.000420
 16 H s       :     0.591013  s :     0.591013
      pz      :     0.031585  p :     0.044210
      px      :    -0.003669
      py      :     0.016295
      dz2     :     0.001146  d :     0.009375
      dxz     :     0.002514
      dyz     :     0.000159
      dx2y2   :     0.003061
      dxy     :     0.002496
 17 C s       :     3.401401  s :     3.401401
      pz      :     1.262449  p :     3.093646
      px      :     1.081938
      py      :     0.749259
      dz2     :     0.014324  d :     0.120769
      dxz     :     0.017978
[...]
      pz      :     0.013138  p :     0.045443
      px      :     0.012592
      py      :     0.019714
      dz2     :     0.000193  d :     0.001622
      dxz     :     0.000035
      dyz     :     0.000521
      dx2y2   :     0.000462
      dxy     :     0.000411
 24 H s       :     0.850849  s :     0.850849
      pz      :    -0.003153  p :    -0.007934
      px      :    -0.016411
      py      :     0.011629
      dz2     :     0.000197  d :     0.002415
      dxz     :     0.000166
      dyz     :     0.000394
      dx2y2   :     0.000962
      dxy     :     0.000695


                     *******************************
                     * LOEWDIN POPULATION ANALYSIS *
                     *******************************

----------------------
LOEWDIN ATOMIC CHARGES
----------------------
   0 Re:    0.504556
   1 C :   -0.288369
   2 C :   -0.294382
   3 C :   -0.285252
   4 Br:    0.107473
   5 O :    0.110993
   6 O :    0.136889
   7 O :    0.121052
   8 C :    0.030605
   9 C :   -0.031548
  10 C :    0.111800
  11 C :   -0.337771
  12 O :    0.357893
  13 O :    0.059741
  14 C :   -0.104804
  15 O :   -0.166537
  16 H :   -0.217125
  17 C :    0.193000
  18 H :    0.015976
  19 H :    0.019119
  20 H :    0.019043
  21 H :   -0.071074
  22 H :    0.011222
  23 H :   -0.042914
  24 H :    0.040415

-------------------------------
LOEWDIN REDUCED ORBITAL CHARGES
-------------------------------
  0 Res       :     1.933298  s :     1.933298
      pz      :     2.150099  p :     6.455348
      px      :     2.123786
      py      :     2.181464
      dz2     :     0.944190  d :     5.679418
      dxz     :     1.295719
      dyz     :     1.212819
      dx2y2   :     1.029178
      dxy     :     1.197512
      f0      :     0.086147  f :     0.401297
      f+1     :     0.063384
      f-1     :     0.055367
      f+2     :     0.028771
      f-2     :     0.016608
      f+3     :     0.079929
      f-3     :     0.071090
      g0      :     0.004482  g :     0.026083
      g+1     :     0.002247
      g-1     :     0.004338
      g+2     :     0.002827
      g-2     :     0.001480
      g+3     :     0.001359
      g-3     :     0.000971
      g+4     :     0.002830
      g-4     :     0.005550
  1 C s       :     2.904419  s :     2.904419
      pz      :     1.061943  p :     2.332036
      px      :     0.632963
      py      :     0.637130
      dz2     :     0.280991  d :     0.961366
      dxz     :     0.291275
      dyz     :     0.288304
      dx2y2   :     0.053285
      dxy     :     0.047511
      f0      :     0.030581  f :     0.090548
      f+1     :     0.025015
      f-1     :     0.026179
      f+2     :     0.004176
      f-2     :     0.004269
      f+3     :     0.000170
      f-3     :     0.000158
  2 C s       :     2.878555  s :     2.878555
      pz      :     0.634458  p :     2.340095
      px      :     1.039750
      py      :     0.665887
      dz2     :     0.103180  d :     0.984836
      dxz     :     0.289739
      dyz     :     0.043612
      dx2y2   :     0.258687
      dxy     :     0.289617
      f0      :     0.010343  f :     0.090896
      f+1     :     0.012147
      f-1     :     0.002660
      f+2     :     0.012538
      f-2     :     0.006099
      f+3     :     0.024113
      f-3     :     0.022996
  3 C s       :     2.868265  s :     2.868265
      pz      :     0.646282  p :     2.332372
      px      :     0.688835
      py      :     0.997255
      dz2     :     0.145669  d :     0.994636
      dxz     :     0.064464
      dyz     :     0.265413
      dx2y2   :     0.245065
      dxy     :     0.274025
      f0      :     0.009070  f :     0.089979
      f+1     :     0.002652
      f-1     :     0.014255
      f+2     :     0.012332
      f-2     :     0.009410
      f+3     :     0.020036
      f-3     :     0.022224
  4 Brs       :     7.629244  s :     7.629244
      pz      :     5.786396  p :    17.078850
      px      :     5.729849
      py      :     5.562606
      dz2     :     2.024410  d :    10.180868
      dxz     :     2.013071
      dyz     :     2.060293
      dx2y2   :     2.038110
      dxy     :     2.044985
      f0      :     0.000457  f :     0.003564
      f+1     :     0.000116
      f-1     :     0.000373
      f+2     :     0.000520
      f-2     :     0.000453
      f+3     :     0.000598
      f-3     :     0.001048
  5 O s       :     3.381782  s :     3.381782
      pz      :     1.367773  p :     4.301700
      px      :     1.390519
      py      :     1.543408
      dz2     :     0.026491  d :     0.199103
      dxz     :     0.007795
      dyz     :     0.044885
      dx2y2   :     0.062000
      dxy     :     0.057933
      f0      :     0.000613  f :     0.006421
      f+1     :     0.000174
      f-1     :     0.001030
      f+2     :     0.000819
      f-2     :     0.000584
      f+3     :     0.001718
      f-3     :     0.001484
  6 O s       :     3.381817  s :     3.381817
      pz      :     1.582262  p :     4.280692
      px      :     1.356912
      py      :     1.341517
      dz2     :     0.097861  d :     0.194025
      dxz     :     0.042720
      dyz     :     0.047965
      dx2y2   :     0.002532
      dxy     :     0.002947
      f0      :     0.002908  f :     0.006578
      f+1     :     0.001376
      f-1     :     0.001855
      f+2     :     0.000210
      f-2     :     0.000218
      f+3     :     0.000006
      f-3     :     0.000005
  7 O s       :     3.382169  s :     3.382169
      pz      :     1.356215  p :     4.295334
      px      :     1.564219
      py      :     1.374900
      dz2     :     0.026978  d :     0.194936
      dxz     :     0.040792
      dyz     :     0.004005
      dx2y2   :     0.069369
      dxy     :     0.053793
      f0      :     0.000583  f :     0.006509
      f+1     :     0.001185
      f-1     :     0.000192
      f+2     :     0.000691
      f-2     :     0.000323
      f+3     :     0.001691
      f-3     :     0.001844
  8 C s       :     2.736603  s :     2.736603
      pz      :     0.795133  p :     2.675348
      px      :     0.825110
      py      :     1.055105
      dz2     :     0.116566  d :     0.520318
      dxz     :     0.061193
      dyz     :     0.148258
      dx2y2   :     0.109282
      dxy     :     0.085019
      f0      :     0.005335  f :     0.037126
      f+1     :     0.001480
      f-1     :     0.006036
      f+2     :     0.005263
      f-2     :     0.002804
      f+3     :     0.008185
      f-3     :     0.008023
  9 C s       :     2.748745  s :     2.748745
      pz      :     0.836826  p :     2.691765
      px      :     0.790930
      py      :     1.064010
      dz2     :     0.090030  d :     0.553363
      dxz     :     0.068780
      dyz     :     0.183866
      dx2y2   :     0.112684
      dxy     :     0.098004
      f0      :     0.005458  f :     0.037674
      f+1     :     0.001964
      f-1     :     0.006085
      f+2     :     0.005557
      f-2     :     0.003064
      f+3     :     0.008139
      f-3     :     0.007407
 10 C s       :     2.620923  s :     2.620923
      pz      :     0.873618  p :     2.675632
      px      :     0.912313
      py      :     0.889700
      dz2     :     0.061313  d :     0.550042
      dxz     :     0.067236
      dyz     :     0.039605
      dx2y2   :     0.176102
      dxy     :     0.205786
      f0      :     0.002947  f :     0.041603
      f+1     :     0.004629
      f-1     :     0.004174
      f+2     :     0.003556
      f-2     :     0.002995
      f+3     :     0.010197
      f-3     :     0.013105
 11 C s       :     2.599108  s :     2.599108
      pz      :     0.617220  p :     2.293266
      px      :     0.793935
      py      :     0.882111
      dz2     :     0.106109  d :     1.287799
      dxz     :     0.216210
      dyz     :     0.228925
      dx2y2   :     0.395904
      dxy     :     0.340650
      f0      :     0.010901  f :     0.157598
      f+1     :     0.010904
      f-1     :     0.009217
      f+2     :     0.025115
      f-2     :     0.016683
      f+3     :     0.027237
      f-3     :     0.057542
 12 O s       :     3.126719  s :     3.126719
      pz      :     1.440922  p :     4.195242
      px      :     1.324417
      py      :     1.429902
      dz2     :     0.042407  d :     0.314067
      dxz     :     0.021847
      dyz     :     0.046800
      dx2y2   :     0.115622
      dxy     :     0.087390
      f0      :     0.000367  f :     0.006079
      f+1     :     0.000513
      f-1     :     0.000548
      f+2     :     0.000470
      f-2     :     0.000453
      f+3     :     0.001797
      f-3     :     0.001930
 13 O s       :     3.165055  s :     3.165055
      pz      :     1.500093  p :     4.250653
      px      :     1.328612
      py      :     1.421947
      dz2     :     0.050412  d :     0.517445
      dxz     :     0.077462
      dyz     :     0.075668
      dx2y2   :     0.159158
      dxy     :     0.154746
      f0      :     0.000643  f :     0.007106
      f+1     :     0.000906
      f-1     :     0.000337
      f+2     :     0.000913
      f-2     :     0.000397
      f+3     :     0.001520
      f-3     :     0.002390
 14 C s       :     2.648929  s :     2.648929
      pz      :     0.600816  p :     2.396687
      px      :     0.934537
      py      :     0.861335
      dz2     :     0.076971  d :     0.960930
      dxz     :     0.186168
      dyz     :     0.096130
      dx2y2   :     0.297436
      dxy     :     0.304226
      f0      :     0.006498  f :     0.098258
      f+1     :     0.005731
      f-1     :     0.007803
      f+2     :     0.011692
      f-2     :     0.012237
      f+3     :     0.017901
      f-3     :     0.036396
 15 O s       :     3.241985  s :     3.241985
      pz      :     1.423182  p :     4.406932
      px      :     1.496507
      py      :     1.487243
      dz2     :     0.064346  d :     0.512164
      dxz     :     0.077163
      dyz     :     0.048916
      dx2y2   :     0.158504
      dxy     :     0.163235
      f0      :     0.000418  f :     0.005457
      f+1     :     0.000391
      f-1     :     0.000602
      f+2     :     0.000191
      f-2     :     0.000572
      f+3     :     0.001324
      f-3     :     0.001959
 16 H s       :     0.505623  s :     0.505623
      pz      :     0.116184  p :     0.621044
      px      :     0.332429
      py      :     0.172432
      dz2     :     0.008874  d :     0.090458
      dxz     :     0.025702
      dyz     :     0.000709
      dx2y2   :     0.025114
      dxy     :     0.030059
 17 C s       :     2.632077  s :     2.632077
      pz      :     0.939747  p :     2.545109
      px      :     0.859558
      py      :     0.745804
      dz2     :     0.084517  d :     0.569311
      dxz     :     0.033857
      dyz     :     0.168982
      dx2y2   :     0.177204
      dxy     :     0.104751
      f0      :     0.005441  f :     0.060503
      f+1     :     0.006046
      f-1     :     0.009056
      f+2     :     0.003722
      f-2     :     0.009126
      f+3     :     0.013992
      f-3     :     0.013120
 18 H s       :     0.699002  s :     0.699002
      pz      :     0.076004  p :     0.255027
      px      :     0.123138
      py      :     0.055885
      dz2     :     0.002968  d :     0.029995
      dxz     :     0.009529
      dyz     :     0.000933
      dx2y2   :     0.008733
      dxy     :     0.007833
 19 H s       :     0.688132  s :     0.688132
      pz      :     0.116821  p :     0.262848
      px      :     0.078204
      py      :     0.067823
      dz2     :     0.009961  d :     0.029901
      dxz     :     0.005946
      dyz     :     0.008462
      dx2y2   :     0.002509
      dxy     :     0.003023
 20 H s       :     0.688371  s :     0.688371
      pz      :     0.112433  p :     0.262694
      px      :     0.077188
      py      :     0.073073
      dz2     :     0.009268  d :     0.029891
      dxz     :     0.005334
      dyz     :     0.008594
      dx2y2   :     0.003089
      dxy     :     0.003607
 21 H s       :     0.713730  s :     0.713730
      pz      :     0.111929  p :     0.326831
      px      :     0.079667
      py      :     0.135236
      dz2     :     0.005020  d :     0.030513
      dxz     :     0.002592
      dyz     :     0.009599
      dx2y2   :     0.006733
      dxy     :     0.006568
 22 H s       :     0.687231  s :     0.687231
      pz      :     0.090045  p :     0.270058
      px      :     0.077818
      py      :     0.102196
      dz2     :     0.002916  d :     0.031490
      dxz     :     0.002875
      dyz     :     0.008263
      dx2y2   :     0.008698
      dxy     :     0.008737
 23 H s       :     0.716138  s :     0.716138
      pz      :     0.088007  p :     0.296589
      px      :     0.082575
      py      :     0.126007
      dz2     :     0.003384  d :     0.030187
      dxz     :     0.000893
      dyz     :     0.008692
      dx2y2   :     0.008878
      dxy     :     0.008340
 24 H s       :     0.687874  s :     0.687874
      pz      :     0.051312  p :     0.244129
      px      :     0.087330
      py      :     0.105487
      dz2     :     0.003064  d :     0.027582
      dxz     :     0.001677
      dyz     :     0.004587
      dx2y2   :     0.009093
      dxy     :     0.009162


                      *****************************
                      * MAYER POPULATION ANALYSIS *
                      *****************************

  NA   - Mulliken gross atomic population
  ZA   - Total nuclear charge
  QA   - Mulliken gross atomic charge
  VA   - Mayer's total valence
  BVA  - Mayer's bonded valence
  FA   - Mayer's free valence

  ATOM       NA         ZA         QA         VA         BVA        FA
  0 Re    14.7055    15.0000     0.2945     5.4952     5.4952     0.0000
  1 C      5.5612     6.0000     0.4388     3.0875     3.0875    -0.0000
  2 C      5.2708     6.0000     0.7292     3.0797     3.0797     0.0000
  3 C      5.7577     6.0000     0.2423     3.2814     3.2814    -0.0000
  4 Br    35.5678    35.0000    -0.5678     0.7435     0.7435    -0.0000
  5 O      8.4616     8.0000    -0.4616     2.0293     2.0293     0.0000
  6 O      8.3656     8.0000    -0.3656     2.0954     2.0954    -0.0000
  7 O      8.4487     8.0000    -0.4487     2.0810     2.0810    -0.0000
  8 C      6.3176     6.0000    -0.3176     3.6643     3.6643     0.0000
  9 C      6.1985     6.0000    -0.1985     3.3896     3.3896    -0.0000
 10 C      6.8054     6.0000    -0.8054     3.2076     3.2076    -0.0000
 11 C      5.0526     6.0000     0.9474     3.0692     3.0692    -0.0000
 12 O      8.4889     8.0000    -0.4889     1.7770     1.7770    -0.0000
 13 O      8.3507     8.0000    -0.3507     1.6815     1.6815     0.0000
 14 C      5.2874     6.0000     0.7126     3.1353     3.1353     0.0000
 15 O      8.7509     8.0000    -0.7509     1.9040     1.9040     0.0000
 16 H      0.6446     1.0000     0.3554     0.8442     0.8442    -0.0000
 17 C      6.6230     6.0000    -0.6230     3.5222     3.5222    -0.0000
 18 H      0.7897     1.0000     0.2103     1.0230     1.0230    -0.0000
 19 H      0.6900     1.0000     0.3100     0.9392     0.9392    -0.0000
 20 H      0.6902     1.0000     0.3098     0.9393     0.9393    -0.0000
 21 H      0.7295     1.0000     0.2705     0.9716     0.9716    -0.0000
 22 H      0.8691     1.0000     0.1309     1.0455     1.0455     0.0000
 23 H      0.7278     1.0000     0.2722     0.9707     0.9707     0.0000
 24 H      0.8453     1.0000     0.1547     0.9279     0.9279    -0.0000

  Mayer bond orders larger than 0.100000
B(  0-Re,  1-C ) :   0.9512 B(  0-Re,  2-C ) :   1.3366 B(  0-Re,  3-C ) :   1.1281 
B(  0-Re,  4-Br) :   0.5360 B(  0-Re,  8-C ) :   0.5961 B(  0-Re,  9-C ) :   0.5234 
B(  0-Re, 15-O ) :   0.3159 B(  1-C ,  2-C ) :  -0.1458 B(  1-C ,  6-O ) :   2.0040 
B(  2-C ,  7-O ) :   1.9283 B(  3-C ,  5-O ) :   1.9187 B(  3-C ,  8-C ) :   0.1175 
B(  3-C , 15-O ) :   0.1043 B(  8-C ,  9-C ) :   2.0496 B(  8-C , 23-H ) :   0.9478 
B(  9-C , 15-O ) :  -0.1362 B(  9-C , 21-H ) :   0.9341 B( 10-C , 11-C ) :   1.0310 
B( 10-C , 14-C ) :   1.0015 B( 10-C , 15-O ) :   0.1597 B( 10-C , 22-H ) :   1.1494 
B( 11-C , 12-O ) :   0.9952 B( 11-C , 13-O ) :   0.9178 B( 11-C , 15-O ) :   0.1403 
B( 12-O , 16-H ) :   0.7596 B( 13-O , 17-C ) :   0.7587 B( 14-C , 15-O ) :   1.1015 
B( 14-C , 24-H ) :   1.0084 B( 17-C , 18-H ) :   1.0045 B( 17-C , 19-H ) :   0.9051 
B( 17-C , 20-H ) :   0.9042 

-------
TIMINGS
-------

Total SCF time: 0 days 0 hours 10 min 17 sec 

Total time                  ....     617.409 sec
Sum of individual times     ....     616.048 sec  ( 99.8%)

Fock matrix formation       ....     609.228 sec  ( 98.7%)
  XC integration            ....       9.155 sec  (  1.5% of F)
    Basis function eval.    ....       0.935 sec  ( 10.2% of XC)
    Density eval.           ....       3.022 sec  ( 33.0% of XC)
    XC-Functional eval.     ....       0.101 sec  (  1.1% of XC)
    XC-Potential eval.      ....       4.369 sec  ( 47.7% of XC)
Diagonalization             ....       2.414 sec  (  0.4%)
Density matrix formation    ....       0.078 sec  (  0.0%)
Population analysis         ....       0.146 sec  (  0.0%)
Initial guess               ....       2.009 sec  (  0.3%)
Orbital Transformation      ....       0.000 sec  (  0.0%)
Orbital Orthonormalization  ....       0.000 sec  (  0.0%)
DIIS solution               ....       1.322 sec  (  0.2%)
Grid generation             ....       0.851 sec  (  0.1%)

-------------------------   --------------------
FINAL SINGLE POINT ENERGY     -3451.542172121879
-------------------------   --------------------


                            ***************************************
                            *     ORCA property calculations      *
                            ***************************************

                                    ---------------------
                                    Active property flags
                                    ---------------------
   (+) Dipole Moment


------------------------------------------------------------------------------
                       ORCA ELECTRIC PROPERTIES CALCULATION
------------------------------------------------------------------------------

Dipole Moment Calculation                       ... on
Quadrupole Moment Calculation                   ... off
Polarizability Calculation                      ... off
GBWName                                         ... TMB20_C1.gbw
Electron density file                           ... TMB20_C1.scfp
The origin for moment calculation is the CENTER OF MASS  = (-0.248651, -0.071111  0.004478)

-------------
DIPOLE MOMENT
-------------
                                X             Y             Z
Electronic contribution:   -158.47379      14.34053      -3.92322
Nuclear contribution   :    161.40681     -12.70221       3.21078
                        -----------------------------------------
Total Dipole Moment    :      2.93302       1.63832      -0.71244
                        -----------------------------------------
Magnitude (a.u.)       :      3.43428
Magnitude (Debye)      :      8.72924



--------------------
Rotational spectrum 
--------------------
 
Rotational constants in cm-1:     0.015589     0.006706     0.005713 
Rotational constants in MHz :   467.340547   201.035293   171.274519 

 Dipole components along the rotational axes: 
x,y,z [a.u.] :     2.932885     1.627457    -0.737450 
x,y,z [Debye]:     7.454802     4.136667    -1.874450 

 

Timings for individual modules:

Sum of individual times         ...      621.481 sec (=  10.358 min)
GTO integral calculation        ...        3.667 sec (=   0.061 min)   0.6 %
SCF iterations                  ...      617.814 sec (=  10.297 min)  99.4 %
                             ****ORCA TERMINATED NORMALLY****
TOTAL RUN TIME: 0 days 0 hours 10 minutes 22 seconds 115 msec
