
                                 *****************
                                 * O   R   C   A *
                                 *****************

           --- An Ab Initio, DFT and Semiempirical electronic structure package ---

                  #######################################################
                  #                        -***-                        #
                  #          Department of theory and spectroscopy      #
                  #               Directorship: Frank Neese             #
                  #        Max Planck Institute fuer Kohlenforschung    #
                  #                Kaiser Wilhelm Platz 1               #
                  #                 D-45470 Muelheim/Ruhr               #
                  #                      Germany                        #
                  #                                                     #
                  #                  All rights reserved                #
                  #                        -***-                        #
                  #######################################################


                         Program Version 4.2.0 -  RELEASE  -


 With contributions from (in alphabetic order):
   Daniel Aravena         : Magnetic Suceptibility
   Michael Atanasov       : Ab Initio Ligand Field Theory (pilot matlab implementation)
   Alexander A. Auer      : GIAO ZORA, VPT2
   Ute Becker             : Parallelization
   Giovanni Bistoni       : ED, misc. LED, open-shell LED, HFLED
   Martin Brehm           : Molecular dynamics
   Dmytro Bykov           : SCF Hessian
   Vijay G. Chilkuri      : MRCI spin determinant printing, contributions to CSF-ICE
   Dipayan Datta          : RHF DLPNO-CCSD density
   Achintya Kumar Dutta   : EOM-CC, STEOM-CC
   Dmitry Ganyushin       : Spin-Orbit,Spin-Spin,Magnetic field MRCI
   Miquel Garcia          : C-PCM Hessian, Gaussian charge scheme
   Yang Guo               : DLPNO-NEVPT2, CIM, IAO-localization
   Andreas Hansen         : Spin unrestricted coupled pair/coupled cluster methods
   Benjamin Helmich-Paris : CASSCF linear response (MC-RPA)
   Lee Huntington         : MR-EOM, pCC
   Robert Izsak           : Overlap fitted RIJCOSX, COSX-SCS-MP3, EOM
   Christian Kollmar      : KDIIS, OOCD, Brueckner-CCSD(T), CCSD density
   Simone Kossmann        : Meta GGA functionals, TD-DFT gradient, OOMP2, MP2 Hessian
   Martin Krupicka        : AUTO-CI
   Lucas Lang             : DCDCAS
   Dagmar Lenk            : GEPOL surface, SMD
   Dimitrios Liakos       : Extrapolation schemes; Compound Job, initial MDCI parallelization
   Dimitrios Manganas     : Further ROCIS development; embedding schemes
   Dimitrios Pantazis     : SARC Basis sets
   Taras Petrenko         : DFT Hessian,TD-DFT gradient, ASA, ECA, R-Raman, ABS, FL, XAS/XES, NRVS
   Peter Pinski           : DLPNO-MP2, DLPNO-MP2 Gradient
   Christoph Reimann      : Effective Core Potentials
   Marius Retegan         : Local ZFS, SOC
   Christoph Riplinger    : Optimizer, TS searches, QM/MM, DLPNO-CCSD(T), (RO)-DLPNO pert. Triples
   Tobias Risthaus        : Range-separated hybrids, TD-DFT gradient, RPA, STAB
   Michael Roemelt        : Original ROCIS implementation
   Masaaki Saitow         : Open-shell DLPNO-CCSD energy and density
   Barbara Sandhoefer     : DKH picture change effects
   Avijit Sen             : IP-ROCIS
   Kantharuban Sivalingam : CASSCF convergence, NEVPT2, FIC-MRCI
   Bernardo de Souza      : ESD, SOC TD-DFT
   Georgi Stoychev        : AutoAux, RI-MP2 NMR
   Willem Van den Heuvel  : Paramagnetic NMR
   Boris Wezisla          : Elementary symmetry handling
   Frank Wennmohs         : Technical directorship


 We gratefully acknowledge several colleagues who have allowed us to
 interface, adapt or use parts of their codes:
   Stefan Grimme, W. Hujo, H. Kruse,             : VdW corrections, initial TS optimization,
                  C. Bannwarth                     DFT functionals, gCP, sTDA/sTD-DF
   Ed Valeev, F. Pavosevic, A. Kumar             : LibInt (2-el integral package), F12 methods
   Garnet Chan, S. Sharma, J. Yang, R. Olivares  : DMRG
   Ulf Ekstrom                                   : XCFun DFT Library
   Mihaly Kallay                                 : mrcc  (arbitrary order and MRCC methods)
   Andreas Klamt, Michael Diedenhofen            : otool_cosmo (COSMO solvation model)
   Jiri Pittner, Ondrej Demel                    : Mk-CCSD
   Frank Weinhold                                : gennbo (NPA and NBO analysis)
   Christopher J. Cramer and Donald G. Truhlar   : smd solvation model
   Lars Goerigk                                  : TD-DFT with DH, B97 family of functionals
   V. Asgeirsson, H. Jonsson                     : NEB implementation
   FAccTs GmbH                                   : IRC, NEB, NEB-TS, Multilevel, MM, QM/MM, CI optimization
   S Lehtola, MJT Oliveira, MAL Marques          : LibXC Library


 Your calculation uses the libint2 library for the computation of 2-el integrals
 For citations please refer to: http://libint.valeyev.net

 Your ORCA version has been built with support for libXC version: 4.2.3
 For citations please refer to: https://tddft.org/programs/libxc/

 This ORCA versions uses:
   CBLAS   interface :  Fast vector & matrix operations
   LAPACKE interface :  Fast linear algebra routines
   SCALAPACK package :  Parallel linear algebra routines


Your calculation utilizes the DFT-NL dispersion correction.
Cite in your paper:
Vydrov, O. A.; Van Voorhis, T. J. Chem. Phys. 2010, 133, 244103
Hujo, W.; Grimme, S. J. Chem. Theory Comput. 2011, 7, 3866 
   

----- Orbital basis set information -----
Your calculation utilizes the basis: def2-TZVPPD
   F. Weigend and R. Ahlrichs, Phys. Chem. Chem. Phys. 7, 3297 (2005).
   D. Rappoport and F. Furche, J. Chem. Phys. 133 134105 (2010).

----- AuxJK basis set information -----
Your calculation utilizes the auxiliary basis: def2/JK
   H-Ba, Hf-Rn: F. Weigend, J. Comput. Chem. 29, 167 (2008).

cite the ECPs for Re [Def2-ECP] as follows:
Ce-Yb(ecp-28): M. Dolg, H. Stoll, H.Preuss, J. Chem. Phys., 1989, 90, 1730-1734.
Y-Cd(ecp-28), Hf-Hg(ecp-46): D. Andrae,U. Haeussermann, M. Dolg, H. Stoll, H. Preuss, Theor. Chim. Acta, 1990, 77, 123-141.
In-Sb(ecp-28), Tl-Bi(ecp-46): B. Metz, H. Stoll, M. Dolg, J. Chem. Phys., 2000, 113, 2563-2569.
Te-Xe(ecp-28), Po-Rn(ecp-46): K. A. Peterson, D. Figgen, E. Goll, H. Stoll, M. Dolg, J. Chem. Phys., 2003, 119, 11113-11123.
Rb(ecp-28), Cs(ecp-46): T. Leininger, A. Nicklass, W. Kuechle, H. Stoll, M. Dolg, A. Bergner, Chem. Phys. Lett., 1996, 255, 274-280.
Sr(ecp-28), Ba(ecp-46): M. Kaupp, P. V. Schleyer, H. Stoll and H. Preuss, J. Chem. Phys., 1991, 94, 1360-1366.
La(ecp-46): M. Dolg, H. Stoll, A. Savin, H. Preuss, Theor. Chim. Acta, 1989, 75, 173-194.
Lu(ecp-28): X. Cao, M. Dolg, J. Chem. Phys., 2001, 115, 7348-7355.

ECP parameters for Re [Def2-ECP] have been obtained from:
TURBOMOLE (7.0.2)

================================================================================
                                        WARNINGS
                       Please study these warnings very carefully!
================================================================================


INFO   : the flag for use of LIBINT has been found!

================================================================================
                                       INPUT FILE
================================================================================
NAME = TMB20_T2.in
|  1> #
|  2> # TMB20_T2 wB97M-V/Def2-TZVPPD
|  3> #
|  4> ! wb97m-v def2-tzvppd def2/jk grid4 nofinalgrid
|  5> 
|  6> *xyz 0 1
|  7> Re       0.995979    0.090170   -0.058185 
|  8> C        2.014396   -1.161086   -1.123855 
|  9> C        1.992692   -0.479631    1.452527 
| 10> C        2.318376    1.423242   -0.367549 
| 11> Br      -0.834689   -1.732689    0.254349 
| 12> O        3.132368    2.217573   -0.550268 
| 13> O        2.612239   -1.888693   -1.769425 
| 14> O        2.568963   -0.789175    2.393169 
| 15> C       -1.540273    1.685786    1.546594 
| 16> C       -0.263771    1.318522    1.475095 
| 17> C       -2.014636    1.773094    0.144138 
| 18> C       -2.942101    0.711821   -0.394874 
| 19> O       -2.841029    0.284728   -1.529710 
| 20> O       -3.882762    0.367872    0.447794 
| 21> C       -0.602735    1.743713   -0.435058 
| 22> O       -0.382838    0.990264   -1.561710 
| 23> H       -1.229741    0.476538   -1.736592 
| 24> C       -4.752144   -0.688497    0.013665 
| 25> H       -5.447661   -0.845693    0.832416 
| 26> H       -5.279179   -0.395656   -0.893281 
| 27> H       -4.161178   -1.583930   -0.173849 
| 28> H        0.422554    1.379477    2.313653 
| 29> H       -2.484103    2.733887   -0.106082 
| 30> H       -2.090878    1.979492    2.431124 
| 31> H       -0.128477    2.714877   -0.508669 
| 32> *
| 33> 
| 34> %maxcore 5000
| 35> 
| 36> %pal
| 37> nprocs = 24
| 38> end
| 39> 
| 40> 
| 41>                          ****END OF INPUT****
================================================================================

                       ****************************
                       * Single Point Calculation *
                       ****************************

---------------------------------
CARTESIAN COORDINATES (ANGSTROEM)
---------------------------------
  Re     0.995979    0.090170   -0.058185
  C      2.014396   -1.161086   -1.123855
  C      1.992692   -0.479631    1.452527
  C      2.318376    1.423242   -0.367549
  Br    -0.834689   -1.732689    0.254349
  O      3.132368    2.217573   -0.550268
  O      2.612239   -1.888693   -1.769425
  O      2.568963   -0.789175    2.393169
  C     -1.540273    1.685786    1.546594
  C     -0.263771    1.318522    1.475095
  C     -2.014636    1.773094    0.144138
  C     -2.942101    0.711821   -0.394874
  O     -2.841029    0.284728   -1.529710
  O     -3.882762    0.367872    0.447794
  C     -0.602735    1.743713   -0.435058
  O     -0.382838    0.990264   -1.561710
  H     -1.229741    0.476538   -1.736592
  C     -4.752144   -0.688497    0.013665
  H     -5.447661   -0.845693    0.832416
  H     -5.279179   -0.395656   -0.893281
  H     -4.161178   -1.583930   -0.173849
  H      0.422554    1.379477    2.313653
  H     -2.484103    2.733887   -0.106082
  H     -2.090878    1.979492    2.431124
  H     -0.128477    2.714877   -0.508669

----------------------------
CARTESIAN COORDINATES (A.U.)
----------------------------
  NO LB      ZA    FRAG     MASS         X           Y           Z
   0 Re   15.0000*   0   186.207    1.882128    0.170397   -0.109954
   1 C     6.0000    0    12.011    3.806657   -2.194135   -2.123778
   2 C     6.0000    0    12.011    3.765642   -0.906371    2.744878
   3 C     6.0000    0    12.011    4.381096    2.689538   -0.694567
   4 Br   35.0000    0    79.900   -1.577334   -3.274308    0.480650
   5 O     8.0000    0    15.999    5.919318    4.190606   -1.039856
   6 O     8.0000    0    15.999    4.936416   -3.569113   -3.343729
   7 O     8.0000    0    15.999    4.854637   -1.491325    4.522434
   8 C     6.0000    0    12.011   -2.910694    3.185674    2.922639
   9 C     6.0000    0    12.011   -0.498455    2.491645    2.787526
  10 C     6.0000    0    12.011   -3.807110    3.350662    0.272381
  11 C     6.0000    0    12.011   -5.559765    1.345147   -0.746204
  12 O     8.0000    0    15.999   -5.368767    0.538058   -2.890733
  13 O     8.0000    0    15.999   -7.337357    0.695177    0.846208
  14 C     6.0000    0    12.011   -1.139004    3.295140   -0.822140
  15 O     8.0000    0    15.999   -0.723459    1.871328   -2.951204
  16 H     1.0000    0     1.008   -2.323874    0.900526   -3.281683
  17 C     6.0000    0    12.011   -8.980251   -1.301071    0.025823
  18 H     1.0000    0     1.008  -10.294587   -1.598128    1.573038
  19 H     1.0000    0     1.008   -9.976203   -0.747681   -1.688056
  20 H     1.0000    0     1.008   -7.863487   -2.993194   -0.328527
  21 H     1.0000    0     1.008    0.798511    2.606834    4.372171
  22 H     1.0000    0     1.008   -4.694274    5.166298   -0.200466
  23 H     1.0000    0     1.008   -3.951187    3.740698    4.594159
  24 H     1.0000    0     1.008   -0.242786    5.130374   -0.961245
* core charge reduced due to ECP

--------------------------------
INTERNAL COORDINATES (ANGSTROEM)
--------------------------------
 Re     0   0   0     0.000000000000     0.00000000     0.00000000
 C      1   0   0     1.933511653010     0.00000000     0.00000000
 C      1   2   0     1.897461654662    88.15504259     0.00000000
 C      1   2   3     1.903029392124    89.86893178    88.55772816
 Br     1   2   3     2.602275496803    89.05000414   266.32283848
 O      4   1   2     1.151924887563   179.05328208   312.15035733
 O      2   1   3     1.141748143856   178.99047640   205.13035974
 O      3   1   2     1.145736935575   177.42364093   177.89275802
 C      1   2   3     3.399099919950   163.13847391   244.19258936
 C      9   1   2     1.330207618645    29.42367729   147.22740305
 C      9   1   2     1.483079827443    79.62084388   299.89687830
 C     11   9   1     1.508981657575   119.53599818    93.25772347
 O     12  11   9     1.216748423763   121.93573468   218.97945568
 O     12  11   9     1.308905416654   113.36312792    42.39133353
 C     11   9   1     1.526366824645    93.54516520   332.05053820
 O     15  11   9     1.373093156095   118.03787712   138.84792275
 H     16  15  11     1.005854267978   106.74259588   352.73565845
 C     14  12  11     1.435342647149   115.71952430   183.12058723
 H     18  14  12     1.085729100515   105.45501800   179.18706665
 H     18  14  12     1.089069689883   110.30986584   299.00107229
 H     18  14  12     1.089129271869   109.17784678    59.85674728
 H     10   9   1     1.085328078055   123.35328937   193.99131907
 H     11   9   1     1.098240639085   113.80843211   219.46126995
 H      9   1   2     1.082507460187   153.20950354   107.61588067
 H     15  11   9     1.083281470709   114.42453838   273.06330585

---------------------------
INTERNAL COORDINATES (A.U.)
---------------------------
 Re     0   0   0     0.000000000000     0.00000000     0.00000000
 C      1   0   0     3.653807500934     0.00000000     0.00000000
 C      1   2   0     3.585682876929    88.15504259     0.00000000
 C      1   2   3     3.596204375918    89.86893178    88.55772816
 Br     1   2   3     4.917588013971    89.05000414   266.32283848
 O      4   1   2     2.176822564341   179.05328208   312.15035733
 O      2   1   3     2.157591305800   178.99047640   205.13035974
 O      3   1   2     2.165129029755   177.42364093   177.89275802
 C      1   2   3     6.423367950538   163.13847391   244.19258936
 C      9   1   2     2.513728100494    29.42367729   147.22740305
 C      9   1   2     2.802614708611    79.62084388   299.89687830
 C     11   9   1     2.851562073927   119.53599818    93.25772347
 O     12  11   9     2.299321294792   121.93573468   218.97945568
 O     12  11   9     2.473472772682   113.36312792    42.39133353
 C     11   9   1     2.884415278483    93.54516520   332.05053820
 O     15  11   9     2.594770021380   118.03787712   138.84792275
 H     16  15  11     1.900789097114   106.74259588   352.73565845
 C     14  12  11     2.712404511450   115.71952430   183.12058723
 H     18  14  12     2.051730655603   105.45501800   179.18706665
 H     18  14  12     2.058043454634   110.30986584   299.00107229
 H     18  14  12     2.058156048269   109.17784678    59.85674728
 H     10   9   1     2.050972832979   123.35328937   193.99131907
 H     11   9   1     2.075374037013   113.80843211   219.46126995
 H      9   1   2     2.045642637681   153.20950354   107.61588067
 H     15  11   9     2.047105305591   114.42453838   273.06330585

---------------------
BASIS SET INFORMATION
---------------------
There are 5 groups of distinct atoms

 Group   1 Type Re  : 8s8p6d2f1g contracted to 6s5p3d2f1g pattern {311111/41111/411/11/1}
 Group   2 Type C   : 12s6p3d1f contracted to 6s3p3d1f pattern {621111/411/111/1}
 Group   3 Type Br  : 18s14p9d1f contracted to 7s6p5d1f pattern {8421111/641111/51111/1}
 Group   4 Type O   : 12s7p3d1f contracted to 6s4p3d1f pattern {621111/4111/111/1}
 Group   5 Type H   : 5s3p1d contracted to 3s3p1d pattern {311/111/1}

Atom   0Re   basis set group =>   1
Atom   1C    basis set group =>   2
Atom   2C    basis set group =>   2
Atom   3C    basis set group =>   2
Atom   4Br   basis set group =>   3
Atom   5O    basis set group =>   4
Atom   6O    basis set group =>   4
Atom   7O    basis set group =>   4
Atom   8C    basis set group =>   2
Atom   9C    basis set group =>   2
Atom  10C    basis set group =>   2
Atom  11C    basis set group =>   2
Atom  12O    basis set group =>   4
Atom  13O    basis set group =>   4
Atom  14C    basis set group =>   2
Atom  15O    basis set group =>   4
Atom  16H    basis set group =>   5
Atom  17C    basis set group =>   2
Atom  18H    basis set group =>   5
Atom  19H    basis set group =>   5
Atom  20H    basis set group =>   5
Atom  21H    basis set group =>   5
Atom  22H    basis set group =>   5
Atom  23H    basis set group =>   5
Atom  24H    basis set group =>   5
----------------------------------
AUXILIARY/JK BASIS SET INFORMATION
----------------------------------
There are 5 groups of distinct atoms

 Group   1 Type Re  : 13s12p11d9f5g3h2i contracted to 11s9p9d7f4g3h2i pattern {31111111111/411111111/311111111/3111111/2111/111/11}
 Group   2 Type C   : 14s10p6d2f1g contracted to 10s8p5d1f1g pattern {5111111111/31111111/21111/2/1}
 Group   3 Type Br  : 20s14p13d10f7g3h contracted to 17s13p12d9f6g3h pattern {41111111111111111/2111111111111/211111111111/211111111/211111/111}
 Group   4 Type O   : 14s10p6d2f1g contracted to 10s8p4d2f1g pattern {5111111111/31111111/3111/11/1}
 Group   5 Type H   : 4s2p2d contracted to 2s2p2d pattern {31/11/11}

Atom   0Re   basis set group =>   1
Atom   1C    basis set group =>   2
Atom   2C    basis set group =>   2
Atom   3C    basis set group =>   2
Atom   4Br   basis set group =>   3
Atom   5O    basis set group =>   4
Atom   6O    basis set group =>   4
Atom   7O    basis set group =>   4
Atom   8C    basis set group =>   2
Atom   9C    basis set group =>   2
Atom  10C    basis set group =>   2
Atom  11C    basis set group =>   2
Atom  12O    basis set group =>   4
Atom  13O    basis set group =>   4
Atom  14C    basis set group =>   2
Atom  15O    basis set group =>   4
Atom  16H    basis set group =>   5
Atom  17C    basis set group =>   2
Atom  18H    basis set group =>   5
Atom  19H    basis set group =>   5
Atom  20H    basis set group =>   5
Atom  21H    basis set group =>   5
Atom  22H    basis set group =>   5
Atom  23H    basis set group =>   5
Atom  24H    basis set group =>   5
-------------------------
ECP PARAMETER INFORMATION
-------------------------

 Group 1, Type Re ECP Def2-ECP (replacing 60 core electrons, lmax=3)

Atom   0Re   ECP group =>   1



           ************************************************************
           *        Program running with 24 parallel MPI-processes    *
           *              working on a common directory               *
           ************************************************************
------------------------------------------------------------------------------
                           ORCA GTO INTEGRAL CALCULATION
------------------------------------------------------------------------------

                         BASIS SET STATISTICS AND STARTUP INFO

 # of primitive gaussian shells          ...  475
 # of primitive gaussian functions       ... 1147
 # of contracted shells                  ...  293
 # of contracted basis functions         ...  825
 Highest angular momentum                ...    4
 Maximum contraction depth               ...    8
 Integral package used                   ... LIBINT
 Integral threshhold            Thresh   ...  1.000e-10
 Primitive cut-off              TCut     ...  1.000e-11


------------------------------ INTEGRAL EVALUATION ----------------------------


 * One electron integrals 

   ECP integrals                         ... done
 Pre-screening matrix                    ... done
 Shell pair data                         ... done (   0.010 sec)



           ************************************************************
           *        Program running with 24 parallel MPI-processes    *
           *              working on a common directory               *
           ************************************************************
-------------------------------------------------------------------------------
                                 ORCA SCF
-------------------------------------------------------------------------------

------------
SCF SETTINGS
------------
Hamiltonian:
 Density Functional     Method          .... DFT(GTOs)
 Exchange Functional    Exchange        .... WB97M-V
 Correlation Functional Correlation     .... WB97M-V
 Gradients option       PostSCFGGA      .... off
 Hybrid DFT is turned on
   Fraction HF Exchange ScalHFX         ....  0.150000
   Scaling of DF-GGA-X  ScalDFX         ....  0.000000
   Scaling of DF-GGA-C  ScalDFC         ....  1.000000
   Scaling of DF-LDA-C  ScalLDAC        ....  1.000000
   Perturbative correction              ....  0.000000
   Density functional embedding theory  .... OFF
 Long-range corrected/Screened/Range-Separated Hybrid DFT is turned on
   Amount of maximum screened exact exchange              ....  0.850000
   Range separation parameter mu (erf(mu*r12)/r12)        ....  0.300000
   NL short-range parameter             ....  6.000000
   NL long-range parameter              ....  0.010000


General Settings:
 Integral files         IntName         .... TMB20_T2
 Hartree-Fock type      HFTyp           .... RHF
 Total Charge           Charge          ....    0
 Multiplicity           Mult            ....    1
 Number of Electrons    NEL             ....  160
 Basis Dimension        Dim             ....  825
 Nuclear Repulsion      ENuc            ....   1852.1384979929 Eh

Convergence Acceleration:
 DIIS                   CNVDIIS         .... on
   Start iteration      DIISMaxIt       ....    12
   Startup error        DIISStart       ....  0.200000
   # of expansion vecs  DIISMaxEq       ....     5
   Bias factor          DIISBfac        ....   1.050
   Max. coefficient     DIISMaxC        ....  10.000
 Newton-Raphson         CNVNR           .... off
 SOSCF                  CNVSOSCF        .... off
 Level Shifting         CNVShift        .... on
   Level shift para.    LevelShift      ....    0.2500
   Turn off err/grad.   ShiftErr        ....    0.0010
 Zerner damping         CNVZerner       .... off
 Static damping         CNVDamp         .... on
   Fraction old density DampFac         ....    0.7000
   Max. Damping (<1)    DampMax         ....    0.9800
   Min. Damping (>=0)   DampMin         ....    0.0000
   Turn off err/grad.   DampErr         ....    0.1000
 Fernandez-Rico         CNVRico         .... off

SCF Procedure:
 Maximum # iterations   MaxIter         ....   125
 SCF integral mode      SCFMode         .... Direct
   Integral package                     .... LIBINT
 Reset frequency        DirectResetFreq ....    20
 Integral Threshold     Thresh          ....  1.000e-10 Eh
 Primitive CutOff       TCut            ....  1.000e-11 Eh

Convergence Tolerance:
 Convergence Check Mode ConvCheckMode   .... Total+1el-Energy
 Convergence forced     ConvForced      .... 0
 Energy Change          TolE            ....  1.000e-06 Eh
 1-El. energy change                    ....  1.000e-03 Eh
 DIIS Error             TolErr          ....  1.000e-06


Diagonalization of the overlap matrix:
Smallest eigenvalue                        ... 6.842e-07
Time for diagonalization                   ...    0.113 sec
Threshold for overlap eigenvalues          ... 1.000e-08
Number of eigenvalues below threshold      ... 0
Time for construction of square roots      ...    0.086 sec
Total time needed                          ...    0.201 sec

-------------------
DFT GRID GENERATION
-------------------

General Integration Accuracy     IntAcc      ...  4.670
Radial Grid Type                 RadialGrid  ... Gauss-Chebyshev
Angular Grid (max. acc.)         AngularGrid ... Lebedev-302
Angular grid pruning method      GridPruning ... 3 (G Style)
Weight generation scheme         WeightScheme... Becke
Basis function cutoff            BFCut       ...    1.0000e-10
Integration weight cutoff        WCut        ...    1.0000e-14
Grids for H and He will be reduced by one unit

# of grid points (after initial pruning)     ... 141600 (   0.0 sec)
# of grid points (after weights+screening)   ... 126969 (   0.1 sec)
nearest neighbour list constructed           ...    0.0 sec
Grid point re-assignment to atoms done       ...    0.0 sec
Grid point division into batches done        ...    0.5 sec
Reduced shell lists constructed in    0.6 sec

Total number of grid points                  ...   126969
Total number of batches                      ...     1996
Average number of points per batch           ...       63
Average number of grid points per atom       ...     5079
Average number of shells per batch           ...   189.26 (64.59%)
Average number of basis functions per batch  ...   549.56 (66.61%)
Average number of large shells per batch     ...   150.52 (79.53%)
Average number of large basis fcns per batch ...   436.68 (79.46%)
Maximum spatial batch extension              ...   1.86,  1.83,  1.82 au
Average spatial batch extension              ...   0.04,  0.04,  0.04 au

Time for grid setup =    0.751 sec

------------------------------
INITIAL GUESS: MODEL POTENTIAL
------------------------------
Loading Hartree-Fock densities                     ... done
  calling /sw/apps/orca/orca_4_2_0_linux_x86-64_openmpi314/orca TMB20_T2_atom75.inp > TMB20_T2_atom75.out in order to generate an atomic fitting density for atom 0 (Re with ECP) on-the-fly... 
    atom 0 (Re), assumed electronic state with S=6: 1s2 2s2 2p6 3s2 3p6 4s2 3d10 4p6 5s2 4d10 5p6 6s2 4f14 5d5           ... done
Calculating cut-offs                               ... done
Setting up the integral package                    ... done
Initializing the effective Hamiltonian             ... done
Starting the Coulomb interaction                   ... done (   0.1 sec)
Reading the grid                                   ... done
Mapping shells                                     ... done
Starting the XC term evaluation                    ... done (   0.4 sec)
  promolecular density results
     # of electrons  =    219.998107558
     EX              =   -519.460549234
     EC              =     -9.978504199
     EX+EC           =   -529.439053432
Transforming the Hamiltonian                       ... done (   0.1 sec)
Diagonalizing the Hamiltonian                      ... done (   0.1 sec)
Back transforming the eigenvectors                 ... done (   0.0 sec)
Now organizing SCF variables                       ... done
                      ------------------
                      INITIAL GUESS DONE (   2.7 sec)
                      ------------------
--------------
SCF ITERATIONS
--------------
ITER       Energy         Delta-E        Max-DP      RMS-DP      [F,P]     Damp
               ***  Starting incremental Fock matrix formation  ***
  0  -3451.6075003403   0.000000000000 0.51591486  0.00298167  0.3919511 0.7000
  1  -3451.8297160200  -0.222215679713 0.35097241  0.00222350  0.2822203 0.7000
  2  -3451.9206327234  -0.090916703448 0.41056404  0.00164016  0.2002111 0.7000
                               ***Turning on DIIS***
  3  -3451.9810589363  -0.060426212824 0.34000864  0.00118489  0.1398487 0.7000
  4  -3452.0239260335  -0.042867097265 0.70352764  0.00270584  0.0970231 0.0000
  5  -3452.1243802285  -0.100454195002 0.08426909  0.00022174  0.0043768 0.0000
  6  -3452.1249371244  -0.000556895922 0.01294714  0.00007600  0.0035670 0.0000
  7  -3452.1251234447  -0.000186320223 0.01554191  0.00008620  0.0023404 0.0000
  8  -3452.1252036609  -0.000080216186 0.01405075  0.00004771  0.0011163 0.0000
  9  -3452.1252214910  -0.000017830123 0.04597892  0.00009991  0.0004109 0.0000
 10  -3452.1252271085  -0.000005617545 0.03327825  0.00008408  0.0001438 0.0000
                 **** Energy Check signals convergence ****

               *****************************************************
               *                     SUCCESS                       *
               *           SCF CONVERGED AFTER  11 CYCLES          *
               *****************************************************


Setting up the DFT-NL grid :

General Integration Accuracy     IntAcc      ...  4.340
Radial Grid Type                 RadialGrid  ... Gauss-Chebyshev
Angular Grid (max. acc.)         AngularGrid ... Lebedev-110
Angular grid pruning method      GridPruning ... 3 (G Style)
Weight generation scheme         WeightScheme... Becke
Basis function cutoff            BFCut       ...    1.0000e-10
Integration weight cutoff        WCut        ...    1.0000e-14
Grids for H and He will be reduced by one unit

# of grid points (after initial pruning)     ...  37972 (   0.0 sec)
# of grid points (after weights+screening)   ...  34749 (   0.0 sec)
nearest neighbour list constructed           ...    0.0 sec
Grid point re-assignment to atoms done       ...    0.0 sec
Grid point division into batches done        ...    0.0 sec
Reduced shell lists constructed in    0.1 sec

Total number of grid points                  ...    34749
Total number of batches                      ...      555
Average number of points per batch           ...       62
Average number of grid points per atom       ...     1390
Average number of shells per batch           ...   190.08 (64.87%)
Average number of basis functions per batch  ...   554.08 (67.16%)
Average number of large shells per batch     ...   152.56 (80.26%)
Average number of large basis fcns per batch ...   443.36 (80.02%)
Maximum spatial batch extension              ...   2.49,  2.59,  2.35 au
Average spatial batch extension              ...   0.07,  0.07,  0.07 au

Final grid set up in    0.1 sec

-------------------------------------------------------------------------------
                         DFT-NL dispersion correction                          
-------------------------------------------------------------------------------

SC Energy -3452.125227448 
NL    Energy 0.606111504 
SC+NL Energy -3451.519115943 
NL done in    0.4 sec
-------------------------------------------------------------------------------

----------------
TOTAL SCF ENERGY
----------------

Total Energy       :        -3451.51911594 Eh          -93920.60998 eV

Components:
Nuclear Repulsion  :         1852.13849799 Eh           50399.25078 eV
Electronic Energy  :        -5303.65761394 Eh         -144319.86076 eV
One Electron Energy:        -8495.94088673 Eh         -231186.30481 eV
Two Electron Energy:         3192.28327279 Eh           86866.44406 eV

Virial components:
Potential Energy   :        -6846.44802890 Eh         -186301.32224 eV
Kinetic Energy     :         3394.92891296 Eh           92380.71227 eV
Virial Ratio       :            2.01666904


DFT components:
N(Alpha)           :       79.999876154840 electrons
N(Beta)            :       79.999876154840 electrons
N(Total)           :      159.999752309680 electrons
E(X)               :     -146.183350852402 Eh       
E(C)               :       -6.282063291504 Eh       
NL Energy, E(C,NL) :        0.606111504185 Eh       
E(XC)              :     -151.859302639721 Eh       
DFET-embed. en.    :        0.000000000000 Eh       

---------------
SCF CONVERGENCE
---------------

  Last Energy change         ...   -3.3911e-07  Tolerance :   1.0000e-06
  Last MAX-Density change    ...    1.6269e-02  Tolerance :   1.0000e-05
  Last RMS-Density change    ...    6.4202e-05  Tolerance :   1.0000e-06
  Last DIIS Error            ...    1.1200e-04  Tolerance :   1.0000e-06

             **** THE GBW FILE WAS UPDATED (TMB20_T2.gbw) ****
             **** DENSITY FILE WAS UPDATED (TMB20_T2.scfp) ****
             **** ENERGY FILE WAS UPDATED (TMB20_T2.en.tmp) ****
             **** THE GBW FILE WAS UPDATED (TMB20_T2.gbw) ****
             **** DENSITY FILE WAS UPDATED (TMB20_T2.scfp) ****
----------------
ORBITAL ENERGIES
----------------

  NO   OCC          E(Eh)            E(eV) 
   0   2.0000    -483.444068    -13155.1819 
   1   2.0000     -62.749295     -1707.4951 
   2   2.0000     -56.435490     -1535.6878 
   3   2.0000     -56.434246     -1535.6539 
   4   2.0000     -56.434159     -1535.6515 
   5   2.0000     -19.432382      -528.7820 
   6   2.0000     -19.422359      -528.5092 
   7   2.0000     -19.414492      -528.2952 
   8   2.0000     -19.407991      -528.1183 
   9   2.0000     -19.399137      -527.8773 
  10   2.0000     -19.367744      -527.0231 
  11   2.0000     -10.525998      -286.4270 
  12   2.0000     -10.506633      -285.9000 
  13   2.0000     -10.472610      -284.9742 
  14   2.0000     -10.468205      -284.8543 
  15   2.0000     -10.461769      -284.6792 
  16   2.0000     -10.420453      -283.5550 
  17   2.0000     -10.418957      -283.5142 
  18   2.0000     -10.403155      -283.0843 
  19   2.0000     -10.389316      -282.7077 
  20   2.0000      -8.831474      -240.3166 
  21   2.0000      -6.613274      -179.9563 
  22   2.0000      -6.608867      -179.8364 
  23   2.0000      -6.608566      -179.8282 
  24   2.0000      -3.340647       -90.9036 
  25   2.0000      -2.695043       -73.3359 
  26   2.0000      -2.693727       -73.3001 
  27   2.0000      -2.693484       -73.2934 
  28   2.0000      -2.690074       -73.2006 
  29   2.0000      -2.690068       -73.2005 
  30   2.0000      -1.901327       -51.7377 
  31   2.0000      -1.891766       -51.4776 
  32   2.0000      -1.890593       -51.4456 
  33   2.0000      -1.291683       -35.1485 
  34   2.0000      -1.271276       -34.5932 
  35   2.0000      -1.264718       -34.4147 
  36   2.0000      -1.259469       -34.2719 
  37   2.0000      -1.254610       -34.1397 
  38   2.0000      -1.196372       -32.5549 
  39   2.0000      -1.022226       -27.8162 
  40   2.0000      -0.904820       -24.6214 
  41   2.0000      -0.860024       -23.4025 
  42   2.0000      -0.830112       -22.5885 
  43   2.0000      -0.828754       -22.5515 
  44   2.0000      -0.738007       -20.0822 
  45   2.0000      -0.722575       -19.6623 
  46   2.0000      -0.708413       -19.2769 
  47   2.0000      -0.689699       -18.7677 
  48   2.0000      -0.684154       -18.6168 
  49   2.0000      -0.683619       -18.6022 
  50   2.0000      -0.677284       -18.4298 
  51   2.0000      -0.644588       -17.5401 
  52   2.0000      -0.639191       -17.3933 
  53   2.0000      -0.629851       -17.1391 
  54   2.0000      -0.615359       -16.7448 
  55   2.0000      -0.599363       -16.3095 
  56   2.0000      -0.587384       -15.9835 
  57   2.0000      -0.585914       -15.9435 
  58   2.0000      -0.583771       -15.8852 
  59   2.0000      -0.575789       -15.6680 
  60   2.0000      -0.571290       -15.5456 
  61   2.0000      -0.562598       -15.3091 
  62   2.0000      -0.560128       -15.2418 
  63   2.0000      -0.555722       -15.1220 
  64   2.0000      -0.554327       -15.0840 
  65   2.0000      -0.544993       -14.8300 
  66   2.0000      -0.541762       -14.7421 
  67   2.0000      -0.514962       -14.0128 
  68   2.0000      -0.501799       -13.6546 
  69   2.0000      -0.497769       -13.5450 
  70   2.0000      -0.452236       -12.3060 
  71   2.0000      -0.448876       -12.2145 
  72   2.0000      -0.433419       -11.7939 
  73   2.0000      -0.415821       -11.3151 
  74   2.0000      -0.386561       -10.5189 
  75   2.0000      -0.375972       -10.2307 
  76   2.0000      -0.360445        -9.8082 
  77   2.0000      -0.339896        -9.2490 
  78   2.0000      -0.318496        -8.6667 
  79   2.0000      -0.314338        -8.5536 
  80   0.0000      -0.011550        -0.3143 
  81   0.0000       0.009922         0.2700 
  82   0.0000       0.024070         0.6550 
  83   0.0000       0.028761         0.7826 
  84   0.0000       0.034502         0.9388 
  85   0.0000       0.036076         0.9817 
  86   0.0000       0.042254         1.1498 
  87   0.0000       0.047828         1.3015 
  88   0.0000       0.049567         1.3488 
  89   0.0000       0.053769         1.4631 
  90   0.0000       0.058634         1.5955 
  91   0.0000       0.062159         1.6914 
  92   0.0000       0.063286         1.7221 
  93   0.0000       0.068228         1.8566 
  94   0.0000       0.074844         2.0366 
  95   0.0000       0.079286         2.1575 
  96   0.0000       0.082021         2.2319 
  97   0.0000       0.084354         2.2954 
  98   0.0000       0.086847         2.3632 
  99   0.0000       0.088213         2.4004 
 100   0.0000       0.094848         2.5810 
 101   0.0000       0.098942         2.6923 
 102   0.0000       0.103082         2.8050 
 103   0.0000       0.104322         2.8387 
 104   0.0000       0.110002         2.9933 
 105   0.0000       0.113638         3.0923 
 106   0.0000       0.117973         3.2102 
 107   0.0000       0.120807         3.2873 
 108   0.0000       0.122287         3.3276 
 109   0.0000       0.124503         3.3879 
 110   0.0000       0.129366         3.5202 
 111   0.0000       0.135208         3.6792 
 112   0.0000       0.141522         3.8510 
 113   0.0000       0.143749         3.9116 
 114   0.0000       0.152185         4.1412 
 115   0.0000       0.156053         4.2464 
 116   0.0000       0.158080         4.3016 
 117   0.0000       0.163303         4.4437 
 118   0.0000       0.166696         4.5360 
 119   0.0000       0.168524         4.5858 
 120   0.0000       0.170355         4.6356 
 121   0.0000       0.175703         4.7811 
 122   0.0000       0.179449         4.8831 
 123   0.0000       0.184774         5.0280 
 124   0.0000       0.188247         5.1225 
 125   0.0000       0.192053         5.2260 
 126   0.0000       0.195528         5.3206 
 127   0.0000       0.203840         5.5468 
 128   0.0000       0.206175         5.6103 
 129   0.0000       0.210506         5.7281 
 130   0.0000       0.213188         5.8012 
 131   0.0000       0.222595         6.0571 
 132   0.0000       0.224671         6.1136 
 133   0.0000       0.229816         6.2536 
 134   0.0000       0.232444         6.3251 
 135   0.0000       0.238743         6.4965 
 136   0.0000       0.241452         6.5702 
 137   0.0000       0.246060         6.6956 
 138   0.0000       0.250863         6.8263 
 139   0.0000       0.252528         6.8716 
 140   0.0000       0.253486         6.8977 
 141   0.0000       0.257644         7.0109 
 142   0.0000       0.262411         7.1406 
 143   0.0000       0.269889         7.3441 
 144   0.0000       0.274157         7.4602 
 145   0.0000       0.275906         7.5078 
 146   0.0000       0.278683         7.5834 
 147   0.0000       0.281980         7.6731 
 148   0.0000       0.284443         7.7401 
 149   0.0000       0.286630         7.7996 
 150   0.0000       0.290367         7.9013 
 151   0.0000       0.291999         7.9457 
 152   0.0000       0.295399         8.0382 
 153   0.0000       0.301098         8.1933 
 154   0.0000       0.303647         8.2627 
 155   0.0000       0.309109         8.4113 
 156   0.0000       0.309940         8.4339 
 157   0.0000       0.313559         8.5324 
 158   0.0000       0.318312         8.6617 
 159   0.0000       0.320870         8.7313 
 160   0.0000       0.324700         8.8355 
 161   0.0000       0.327513         8.9121 
 162   0.0000       0.334221         9.0946 
 163   0.0000       0.338588         9.2134 
 164   0.0000       0.339269         9.2320 
 165   0.0000       0.342736         9.3263 
 166   0.0000       0.348899         9.4940 
 167   0.0000       0.351651         9.5689 
 168   0.0000       0.351729         9.5710 
 169   0.0000       0.357265         9.7217 
 170   0.0000       0.358588         9.7577 
 171   0.0000       0.365203         9.9377 
 172   0.0000       0.367529        10.0010 
 173   0.0000       0.371653        10.1132 
 174   0.0000       0.376320        10.2402 
 175   0.0000       0.378470        10.2987 
 176   0.0000       0.382487        10.4080 
 177   0.0000       0.386624        10.5206 
 178   0.0000       0.389288        10.5931 
 179   0.0000       0.391829        10.6622 
 180   0.0000       0.396187        10.7808 
 181   0.0000       0.404335        11.0025 
 182   0.0000       0.407054        11.0765 
 183   0.0000       0.408601        11.1186 
 184   0.0000       0.411256        11.1909 
 185   0.0000       0.414223        11.2716 
 186   0.0000       0.417705        11.3663 
 187   0.0000       0.421690        11.4748 
 188   0.0000       0.426612        11.6087 
 189   0.0000       0.428617        11.6633 
 190   0.0000       0.432576        11.7710 
 191   0.0000       0.437013        11.8917 
 192   0.0000       0.443553        12.0697 
 193   0.0000       0.447650        12.1812 
 194   0.0000       0.448403        12.2017 
 195   0.0000       0.451970        12.2987 
 196   0.0000       0.458381        12.4732 
 197   0.0000       0.463205        12.6045 
 198   0.0000       0.464306        12.6344 
 199   0.0000       0.474330        12.9072 
 200   0.0000       0.475996        12.9525 
 201   0.0000       0.478342        13.0163 
 202   0.0000       0.483681        13.1616 
 203   0.0000       0.490135        13.3372 
 204   0.0000       0.490336        13.3427 
 205   0.0000       0.496539        13.5115 
 206   0.0000       0.500060        13.6073 
 207   0.0000       0.504936        13.7400 
 208   0.0000       0.507167        13.8007 
 209   0.0000       0.508066        13.8252 
 210   0.0000       0.518096        14.0981 
 211   0.0000       0.520023        14.1505 
 212   0.0000       0.524608        14.2753 
 213   0.0000       0.525708        14.3052 
 214   0.0000       0.530911        14.4468 
 215   0.0000       0.538501        14.6534 
 216   0.0000       0.543825        14.7982 
 217   0.0000       0.552015        15.0211 
 218   0.0000       0.553990        15.0748 
 219   0.0000       0.556708        15.1488 
 220   0.0000       0.561643        15.2831 
 221   0.0000       0.565521        15.3886 
 222   0.0000       0.569692        15.5021 
 223   0.0000       0.576230        15.6800 
 224   0.0000       0.580181        15.7875 
 225   0.0000       0.586533        15.9604 
 226   0.0000       0.589986        16.0543 
 227   0.0000       0.594932        16.1889 
 228   0.0000       0.600845        16.3498 
 229   0.0000       0.602919        16.4063 
 230   0.0000       0.604960        16.4618 
 231   0.0000       0.610282        16.6066 
 232   0.0000       0.618695        16.8355 
 233   0.0000       0.619655        16.8617 
 234   0.0000       0.623312        16.9612 
 235   0.0000       0.624684        16.9985 
 236   0.0000       0.627433        17.0733 
 237   0.0000       0.629172        17.1206 
 238   0.0000       0.635415        17.2905 
 239   0.0000       0.640305        17.4236 
 240   0.0000       0.642227        17.4759 
 241   0.0000       0.645734        17.5713 
 242   0.0000       0.647739        17.6259 
 243   0.0000       0.650871        17.7111 
 244   0.0000       0.659017        17.9328 
 245   0.0000       0.661980        18.0134 
 246   0.0000       0.665861        18.1190 
 247   0.0000       0.668339        18.1864 
 248   0.0000       0.674064        18.3422 
 249   0.0000       0.677718        18.4416 
 250   0.0000       0.680934        18.5291 
 251   0.0000       0.685155        18.6440 
 252   0.0000       0.692495        18.8437 
 253   0.0000       0.694970        18.9111 
 254   0.0000       0.700601        19.0643 
 255   0.0000       0.703612        19.1462 
 256   0.0000       0.707641        19.2559 
 257   0.0000       0.711611        19.3639 
 258   0.0000       0.715157        19.4604 
 259   0.0000       0.720091        19.5947 
 260   0.0000       0.721875        19.6432 
 261   0.0000       0.725030        19.7291 
 262   0.0000       0.726815        19.7776 
 263   0.0000       0.732589        19.9348 
 264   0.0000       0.736510        20.0415 
 265   0.0000       0.740443        20.1485 
 266   0.0000       0.746080        20.3019 
 267   0.0000       0.751753        20.4562 
 268   0.0000       0.753701        20.5092 
 269   0.0000       0.755132        20.5482 
 270   0.0000       0.757620        20.6159 
 271   0.0000       0.761369        20.7179 
 272   0.0000       0.763259        20.7693 
 273   0.0000       0.767313        20.8797 
 274   0.0000       0.778121        21.1738 
 275   0.0000       0.780096        21.2275 
 276   0.0000       0.782884        21.3034 
 277   0.0000       0.790130        21.5005 
 278   0.0000       0.790848        21.5201 
 279   0.0000       0.794885        21.6299 
 280   0.0000       0.799053        21.7434 
 281   0.0000       0.801405        21.8073 
 282   0.0000       0.807656        21.9774 
 283   0.0000       0.813329        22.1318 
 284   0.0000       0.816743        22.2247 
 285   0.0000       0.823392        22.4056 
 286   0.0000       0.825568        22.4649 
 287   0.0000       0.834877        22.7182 
 288   0.0000       0.839035        22.8313 
 289   0.0000       0.840871        22.8813 
 290   0.0000       0.843288        22.9470 
 291   0.0000       0.852270        23.1914 
 292   0.0000       0.859155        23.3788 
 293   0.0000       0.860966        23.4281 
 294   0.0000       0.866542        23.5798 
 295   0.0000       0.869696        23.6656 
 296   0.0000       0.876173        23.8419 
 297   0.0000       0.880441        23.9580 
 298   0.0000       0.885113        24.0851 
 299   0.0000       0.891562        24.2606 
 300   0.0000       0.892522        24.2868 
 301   0.0000       0.906967        24.6798 
 302   0.0000       0.908922        24.7330 
 303   0.0000       0.917302        24.9610 
 304   0.0000       0.922468        25.1016 
 305   0.0000       0.926940        25.2233 
 306   0.0000       0.930361        25.3164 
 307   0.0000       0.932545        25.3758 
 308   0.0000       0.940174        25.5834 
 309   0.0000       0.944252        25.6944 
 310   0.0000       0.949367        25.8336 
 311   0.0000       0.953965        25.9587 
 312   0.0000       0.959963        26.1219 
 313   0.0000       0.961758        26.1708 
 314   0.0000       0.979724        26.6597 
 315   0.0000       0.983044        26.7500 
 316   0.0000       0.987465        26.8703 
 317   0.0000       1.000682        27.2299 
 318   0.0000       1.005853        27.3706 
 319   0.0000       1.011957        27.5367 
 320   0.0000       1.018860        27.7246 
 321   0.0000       1.027374        27.9563 
 322   0.0000       1.030513        28.0417 
 323   0.0000       1.039430        28.2843 
 324   0.0000       1.044353        28.4183 
 325   0.0000       1.049672        28.5630 
 326   0.0000       1.051418        28.6105 
 327   0.0000       1.060390        28.8547 
 328   0.0000       1.072262        29.1777 
 329   0.0000       1.082090        29.4452 
 330   0.0000       1.083699        29.4889 
 331   0.0000       1.097437        29.8628 
 332   0.0000       1.103736        30.0342 
 333   0.0000       1.104464        30.0540 
 334   0.0000       1.111117        30.2350 
 335   0.0000       1.118234        30.4287 
 336   0.0000       1.124933        30.6110 
 337   0.0000       1.128506        30.7082 
 338   0.0000       1.137462        30.9519 
 339   0.0000       1.141534        31.0627 
 340   0.0000       1.153280        31.3823 
 341   0.0000       1.155153        31.4333 
 342   0.0000       1.161244        31.5990 
 343   0.0000       1.176141        32.0044 
 344   0.0000       1.180016        32.1099 
 345   0.0000       1.192763        32.4567 
 346   0.0000       1.201758        32.7015 
 347   0.0000       1.207575        32.8598 
 348   0.0000       1.212208        32.9858 
 349   0.0000       1.222544        33.2671 
 350   0.0000       1.234308        33.5872 
 351   0.0000       1.247988        33.9595 
 352   0.0000       1.249688        34.0057 
 353   0.0000       1.252072        34.0706 
 354   0.0000       1.265257        34.4294 
 355   0.0000       1.272234        34.6193 
 356   0.0000       1.277528        34.7633 
 357   0.0000       1.287387        35.0316 
 358   0.0000       1.291361        35.1397 
 359   0.0000       1.295030        35.2396 
 360   0.0000       1.299757        35.3682 
 361   0.0000       1.306483        35.5512 
 362   0.0000       1.320364        35.9289 
 363   0.0000       1.329299        36.1721 
 364   0.0000       1.337472        36.3944 
 365   0.0000       1.349188        36.7133 
 366   0.0000       1.354221        36.8502 
 367   0.0000       1.358879        36.9770 
 368   0.0000       1.360440        37.0195 
 369   0.0000       1.367344        37.2073 
 370   0.0000       1.371176        37.3116 
 371   0.0000       1.375414        37.4269 
 372   0.0000       1.379411        37.5357 
 373   0.0000       1.389796        37.8183 
 374   0.0000       1.399260        38.0758 
 375   0.0000       1.406586        38.2752 
 376   0.0000       1.414466        38.4896 
 377   0.0000       1.418656        38.6036 
 378   0.0000       1.428721        38.8775 
 379   0.0000       1.433420        39.0053 
 380   0.0000       1.444451        39.3055 
 381   0.0000       1.452134        39.5146 
 382   0.0000       1.457338        39.6562 
 383   0.0000       1.464514        39.8514 
 384   0.0000       1.473944        40.1080 
 385   0.0000       1.481096        40.3027 
 386   0.0000       1.497734        40.7554 
 387   0.0000       1.499787        40.8113 
 388   0.0000       1.515555        41.2403 
 389   0.0000       1.520563        41.3766 
 390   0.0000       1.528291        41.5869 
 391   0.0000       1.536495        41.8102 
 392   0.0000       1.546309        42.0772 
 393   0.0000       1.552471        42.2449 
 394   0.0000       1.564923        42.5837 
 395   0.0000       1.572832        42.7989 
 396   0.0000       1.582351        43.0580 
 397   0.0000       1.594656        43.3928 
 398   0.0000       1.608985        43.7827 
 399   0.0000       1.617563        44.0161 
 400   0.0000       1.620472        44.0953 
 401   0.0000       1.638347        44.5817 
 402   0.0000       1.642992        44.7081 
 403   0.0000       1.656308        45.0704 
 404   0.0000       1.671728        45.4900 
 405   0.0000       1.679546        45.7028 
 406   0.0000       1.684896        45.8484 
 407   0.0000       1.689720        45.9796 
 408   0.0000       1.695135        46.1270 
 409   0.0000       1.711156        46.5629 
 410   0.0000       1.715028        46.6683 
 411   0.0000       1.727703        47.0132 
 412   0.0000       1.744646        47.4742 
 413   0.0000       1.746889        47.5353 
 414   0.0000       1.754423        47.7403 
 415   0.0000       1.767000        48.0825 
 416   0.0000       1.773848        48.2689 
 417   0.0000       1.779946        48.4348 
 418   0.0000       1.785470        48.5851 
 419   0.0000       1.793926        48.8152 
 420   0.0000       1.808964        49.2244 
 421   0.0000       1.820965        49.5510 
 422   0.0000       1.826814        49.7101 
 423   0.0000       1.836854        49.9833 
 424   0.0000       1.845810        50.2270 
 425   0.0000       1.856819        50.5266 
 426   0.0000       1.873034        50.9678 
 427   0.0000       1.873833        50.9896 
 428   0.0000       1.882345        51.2212 
 429   0.0000       1.883069        51.2409 
 430   0.0000       1.889465        51.4150 
 431   0.0000       1.900810        51.7237 
 432   0.0000       1.909197        51.9519 
 433   0.0000       1.917686        52.1829 
 434   0.0000       1.922183        52.3053 
 435   0.0000       1.923593        52.3436 
 436   0.0000       1.931639        52.5626 
 437   0.0000       1.935095        52.6566 
 438   0.0000       1.947395        52.9913 
 439   0.0000       1.950012        53.0625 
 440   0.0000       1.958441        53.2919 
 441   0.0000       1.961653        53.3793 
 442   0.0000       1.970106        53.6093 
 443   0.0000       1.978781        53.8454 
 444   0.0000       1.981958        53.9318 
 445   0.0000       1.999540        54.4103 
 446   0.0000       2.012774        54.7704 
 447   0.0000       2.016694        54.8770 
 448   0.0000       2.035866        55.3987 
 449   0.0000       2.042204        55.5712 
 450   0.0000       2.044253        55.6269 
 451   0.0000       2.058452        56.0133 
 452   0.0000       2.067180        56.2508 
 453   0.0000       2.075648        56.4813 
 454   0.0000       2.090290        56.8797 
 455   0.0000       2.095763        57.0286 
 456   0.0000       2.105110        57.2830 
 457   0.0000       2.124006        57.7972 
 458   0.0000       2.126487        57.8647 
 459   0.0000       2.150738        58.5245 
 460   0.0000       2.152996        58.5860 
 461   0.0000       2.160104        58.7794 
 462   0.0000       2.181922        59.3731 
 463   0.0000       2.189364        59.5756 
 464   0.0000       2.204527        59.9882 
 465   0.0000       2.210341        60.1464 
 466   0.0000       2.222139        60.4675 
 467   0.0000       2.229928        60.6794 
 468   0.0000       2.239007        60.9265 
 469   0.0000       2.258987        61.4701 
 470   0.0000       2.267465        61.7009 
 471   0.0000       2.274055        61.8802 
 472   0.0000       2.291121        62.3446 
 473   0.0000       2.303517        62.6819 
 474   0.0000       2.306831        62.7721 
 475   0.0000       2.319651        63.1209 
 476   0.0000       2.323179        63.2169 
 477   0.0000       2.335278        63.5461 
 478   0.0000       2.342899        63.7535 
 479   0.0000       2.352556        64.0163 
 480   0.0000       2.355036        64.0838 
 481   0.0000       2.376271        64.6616 
 482   0.0000       2.385382        64.9095 
 483   0.0000       2.404061        65.4178 
 484   0.0000       2.409648        65.5699 
 485   0.0000       2.435612        66.2764 
 486   0.0000       2.459189        66.9179 
 487   0.0000       2.470906        67.2368 
 488   0.0000       2.482183        67.5436 
 489   0.0000       2.485459        67.6328 
 490   0.0000       2.488450        67.7142 
 491   0.0000       2.501023        68.0563 
 492   0.0000       2.521593        68.6160 
 493   0.0000       2.529253        68.8245 
 494   0.0000       2.539363        69.0996 
 495   0.0000       2.553201        69.4761 
 496   0.0000       2.560864        69.6846 
 497   0.0000       2.588973        70.4495 
 498   0.0000       2.591097        70.5073 
 499   0.0000       2.624085        71.4050 
 500   0.0000       2.637584        71.7723 
 501   0.0000       2.645918        71.9991 
 502   0.0000       2.653456        72.2042 
 503   0.0000       2.665933        72.5437 
 504   0.0000       2.692554        73.2681 
 505   0.0000       2.695727        73.3545 
 506   0.0000       2.706979        73.6606 
 507   0.0000       2.719520        74.0019 
 508   0.0000       2.747605        74.7661 
 509   0.0000       2.749744        74.8243 
 510   0.0000       2.760125        75.1068 
 511   0.0000       2.769746        75.3686 
 512   0.0000       2.775457        75.5240 
 513   0.0000       2.784086        75.7588 
 514   0.0000       2.791650        75.9647 
 515   0.0000       2.794030        76.0294 
 516   0.0000       2.822752        76.8110 
 517   0.0000       2.833423        77.1014 
 518   0.0000       2.835070        77.1462 
 519   0.0000       2.853078        77.6362 
 520   0.0000       2.857600        77.7592 
 521   0.0000       2.873275        78.1858 
 522   0.0000       2.875107        78.2356 
 523   0.0000       2.889371        78.6238 
 524   0.0000       2.903633        79.0119 
 525   0.0000       2.907672        79.1218 
 526   0.0000       2.910989        79.2120 
 527   0.0000       2.919801        79.4518 
 528   0.0000       2.932953        79.8097 
 529   0.0000       2.941189        80.0338 
 530   0.0000       2.945463        80.1501 
 531   0.0000       2.952770        80.3489 
 532   0.0000       2.967932        80.7615 
 533   0.0000       2.986130        81.2567 
 534   0.0000       2.991993        81.4163 
 535   0.0000       3.006565        81.8128 
 536   0.0000       3.011841        81.9564 
 537   0.0000       3.024583        82.3031 
 538   0.0000       3.034918        82.5843 
 539   0.0000       3.044569        82.8469 
 540   0.0000       3.055860        83.1542 
 541   0.0000       3.064519        83.3898 
 542   0.0000       3.075089        83.6774 
 543   0.0000       3.080598        83.8273 
 544   0.0000       3.092909        84.1623 
 545   0.0000       3.115026        84.7642 
 546   0.0000       3.125527        85.0499 
 547   0.0000       3.129283        85.1521 
 548   0.0000       3.133093        85.2558 
 549   0.0000       3.141391        85.4816 
 550   0.0000       3.147700        85.6533 
 551   0.0000       3.151654        85.7609 
 552   0.0000       3.165887        86.1482 
 553   0.0000       3.169771        86.2539 
 554   0.0000       3.176301        86.4315 
 555   0.0000       3.186186        86.7005 
 556   0.0000       3.188329        86.7588 
 557   0.0000       3.204056        87.1868 
 558   0.0000       3.210373        87.3587 
 559   0.0000       3.218434        87.5780 
 560   0.0000       3.220694        87.6395 
 561   0.0000       3.228822        87.8607 
 562   0.0000       3.233708        87.9937 
 563   0.0000       3.256018        88.6008 
 564   0.0000       3.258200        88.6601 
 565   0.0000       3.274975        89.1166 
 566   0.0000       3.283963        89.3612 
 567   0.0000       3.292433        89.5916 
 568   0.0000       3.306064        89.9626 
 569   0.0000       3.307937        90.0135 
 570   0.0000       3.320896        90.3662 
 571   0.0000       3.326293        90.5130 
 572   0.0000       3.331949        90.6669 
 573   0.0000       3.338933        90.8570 
 574   0.0000       3.344495        91.0083 
 575   0.0000       3.351320        91.1941 
 576   0.0000       3.367562        91.6360 
 577   0.0000       3.385846        92.1336 
 578   0.0000       3.387228        92.1712 
 579   0.0000       3.404682        92.6461 
 580   0.0000       3.410766        92.8117 
 581   0.0000       3.416333        92.9631 
 582   0.0000       3.425499        93.2126 
 583   0.0000       3.434998        93.4710 
 584   0.0000       3.442907        93.6863 
 585   0.0000       3.446399        93.7813 
 586   0.0000       3.454071        93.9900 
 587   0.0000       3.467764        94.3626 
 588   0.0000       3.469320        94.4050 
 589   0.0000       3.472940        94.5035 
 590   0.0000       3.480101        94.6984 
 591   0.0000       3.490929        94.9930 
 592   0.0000       3.502337        95.3034 
 593   0.0000       3.510711        95.5313 
 594   0.0000       3.514499        95.6344 
 595   0.0000       3.523692        95.8845 
 596   0.0000       3.533244        96.1445 
 597   0.0000       3.537152        96.2508 
 598   0.0000       3.549405        96.5842 
 599   0.0000       3.568416        97.1015 
 600   0.0000       3.574125        97.2569 
 601   0.0000       3.578360        97.3721 
 602   0.0000       3.585964        97.5790 
 603   0.0000       3.591822        97.7384 
 604   0.0000       3.604610        98.0864 
 605   0.0000       3.611206        98.2659 
 606   0.0000       3.620226        98.5114 
 607   0.0000       3.628351        98.7324 
 608   0.0000       3.634731        98.9061 
 609   0.0000       3.637745        98.9881 
 610   0.0000       3.639475        99.0351 
 611   0.0000       3.650812        99.3436 
 612   0.0000       3.664546        99.7174 
 613   0.0000       3.671783        99.9143 
 614   0.0000       3.675930       100.0271 
 615   0.0000       3.682509       100.2062 
 616   0.0000       3.705448       100.8304 
 617   0.0000       3.713665       101.0540 
 618   0.0000       3.731783       101.5470 
 619   0.0000       3.749958       102.0416 
 620   0.0000       3.763100       102.3992 
 621   0.0000       3.765438       102.4628 
 622   0.0000       3.792831       103.2082 
 623   0.0000       3.809836       103.6709 
 624   0.0000       3.813405       103.7680 
 625   0.0000       3.829839       104.2152 
 626   0.0000       3.830505       104.2333 
 627   0.0000       3.843254       104.5803 
 628   0.0000       3.855521       104.9141 
 629   0.0000       3.862067       105.0922 
 630   0.0000       3.873986       105.4165 
 631   0.0000       3.882315       105.6432 
 632   0.0000       3.898106       106.0729 
 633   0.0000       3.933826       107.0448 
 634   0.0000       3.943563       107.3098 
 635   0.0000       3.961096       107.7869 
 636   0.0000       3.965452       107.9054 
 637   0.0000       3.969387       108.0125 
 638   0.0000       3.994839       108.7051 
 639   0.0000       4.020279       109.3974 
 640   0.0000       4.036742       109.8453 
 641   0.0000       4.038935       109.9050 
 642   0.0000       4.059016       110.4515 
 643   0.0000       4.080440       111.0344 
 644   0.0000       4.090923       111.3197 
 645   0.0000       4.103942       111.6739 
 646   0.0000       4.115202       111.9803 
 647   0.0000       4.127060       112.3030 
 648   0.0000       4.139573       112.6435 
 649   0.0000       4.142212       112.7153 
 650   0.0000       4.150917       112.9522 
 651   0.0000       4.157361       113.1275 
 652   0.0000       4.169584       113.4602 
 653   0.0000       4.181691       113.7896 
 654   0.0000       4.199191       114.2658 
 655   0.0000       4.214035       114.6697 
 656   0.0000       4.220773       114.8531 
 657   0.0000       4.222100       114.8892 
 658   0.0000       4.243110       115.4609 
 659   0.0000       4.254598       115.7735 
 660   0.0000       4.277561       116.3983 
 661   0.0000       4.285142       116.6046 
 662   0.0000       4.305234       117.1514 
 663   0.0000       4.314591       117.4060 
 664   0.0000       4.335959       117.9874 
 665   0.0000       4.349651       118.3600 
 666   0.0000       4.363176       118.7280 
 667   0.0000       4.372372       118.9783 
 668   0.0000       4.394497       119.5803 
 669   0.0000       4.404809       119.8609 
 670   0.0000       4.413797       120.1055 
 671   0.0000       4.433860       120.6515 
 672   0.0000       4.449633       121.0807 
 673   0.0000       4.464578       121.4873 
 674   0.0000       4.468447       121.5926 
 675   0.0000       4.488209       122.1304 
 676   0.0000       4.490854       122.2024 
 677   0.0000       4.505242       122.5939 
 678   0.0000       4.510005       122.7235 
 679   0.0000       4.532650       123.3397 
 680   0.0000       4.542823       123.6165 
 681   0.0000       4.552700       123.8853 
 682   0.0000       4.573705       124.4569 
 683   0.0000       4.593084       124.9842 
 684   0.0000       4.609429       125.4289 
 685   0.0000       4.620981       125.7433 
 686   0.0000       4.647966       126.4776 
 687   0.0000       4.666931       126.9936 
 688   0.0000       4.673932       127.1842 
 689   0.0000       4.680793       127.3709 
 690   0.0000       4.698563       127.8544 
 691   0.0000       4.712243       128.2266 
 692   0.0000       4.747143       129.1763 
 693   0.0000       4.761552       129.5684 
 694   0.0000       4.795485       130.4918 
 695   0.0000       4.848072       131.9228 
 696   0.0000       4.864949       132.3820 
 697   0.0000       4.883928       132.8984 
 698   0.0000       4.890537       133.0783 
 699   0.0000       4.942879       134.5026 
 700   0.0000       4.950921       134.7214 
 701   0.0000       4.979744       135.5057 
 702   0.0000       5.010881       136.3530 
 703   0.0000       5.018150       136.5508 
 704   0.0000       5.030058       136.8748 
 705   0.0000       5.033463       136.9675 
 706   0.0000       5.056554       137.5958 
 707   0.0000       5.104924       138.9120 
 708   0.0000       5.121246       139.3562 
 709   0.0000       5.125415       139.4696 
 710   0.0000       5.138144       139.8160 
 711   0.0000       5.169165       140.6601 
 712   0.0000       5.184494       141.0772 
 713   0.0000       5.210034       141.7722 
 714   0.0000       5.210680       141.7898 
 715   0.0000       5.216132       141.9382 
 716   0.0000       5.217405       141.9728 
 717   0.0000       5.217971       141.9882 
 718   0.0000       5.221068       142.0725 
 719   0.0000       5.222011       142.0981 
 720   0.0000       5.223502       142.1387 
 721   0.0000       5.242236       142.6485 
 722   0.0000       5.259447       143.1168 
 723   0.0000       5.276468       143.5800 
 724   0.0000       5.299786       144.2145 
 725   0.0000       5.324323       144.8822 
 726   0.0000       5.336926       145.2251 
 727   0.0000       5.343420       145.4019 
 728   0.0000       5.370357       146.1348 
 729   0.0000       5.407233       147.1383 
 730   0.0000       5.459430       148.5586 
 731   0.0000       5.478457       149.0764 
 732   0.0000       5.539639       150.7412 
 733   0.0000       5.566553       151.4736 
 734   0.0000       5.582714       151.9134 
 735   0.0000       5.615020       152.7925 
 736   0.0000       5.622210       152.9881 
 737   0.0000       5.624081       153.0390 
 738   0.0000       5.635396       153.3469 
 739   0.0000       5.641880       153.5234 
 740   0.0000       5.643430       153.5655 
 741   0.0000       5.655939       153.9059 
 742   0.0000       5.666662       154.1977 
 743   0.0000       5.675769       154.4455 
 744   0.0000       5.679371       154.5435 
 745   0.0000       5.683775       154.6634 
 746   0.0000       5.721405       155.6873 
 747   0.0000       5.725303       155.7934 
 748   0.0000       5.755541       156.6162 
 749   0.0000       5.809833       158.0936 
 750   0.0000       5.918613       161.0536 
 751   0.0000       5.958895       162.1498 
 752   0.0000       5.969634       162.4420 
 753   0.0000       6.034161       164.1979 
 754   0.0000       6.126486       166.7102 
 755   0.0000       6.194452       168.5596 
 756   0.0000       6.316809       171.8891 
 757   0.0000       6.365798       173.2222 
 758   0.0000       6.368305       173.2904 
 759   0.0000       6.455044       175.6507 
 760   0.0000       6.476233       176.2272 
 761   0.0000       6.542686       178.0355 
 762   0.0000       6.551275       178.2692 
 763   0.0000       6.554104       178.3462 
 764   0.0000       6.557039       178.4261 
 765   0.0000       6.569538       178.7662 
 766   0.0000       6.571743       178.8262 
 767   0.0000       6.579739       179.0438 
 768   0.0000       6.582624       179.1223 
 769   0.0000       6.588791       179.2901 
 770   0.0000       6.597626       179.5305 
 771   0.0000       6.599634       179.5852 
 772   0.0000       6.634583       180.5362 
 773   0.0000       6.700542       182.3310 
 774   0.0000       6.705122       182.4556 
 775   0.0000       6.738635       183.3676 
 776   0.0000       6.755516       183.8269 
 777   0.0000       6.780256       184.5001 
 778   0.0000       6.802179       185.0967 
 779   0.0000       6.852482       186.4655 
 780   0.0000       6.878597       187.1761 
 781   0.0000       6.932606       188.6458 
 782   0.0000       6.989900       190.2049 
 783   0.0000       6.991479       190.2478 
 784   0.0000       6.994102       190.3192 
 785   0.0000       6.999158       190.4568 
 786   0.0000       7.005659       190.6337 
 787   0.0000       7.016683       190.9337 
 788   0.0000       7.025584       191.1759 
 789   0.0000       7.051574       191.8831 
 790   0.0000       7.073076       192.4682 
 791   0.0000       7.097570       193.1347 
 792   0.0000       7.128897       193.9871 
 793   0.0000       7.181307       195.4133 
 794   0.0000       7.262902       197.6336 
 795   0.0000       7.329565       199.4476 
 796   0.0000       7.339254       199.7113 
 797   0.0000       7.343337       199.8224 
 798   0.0000       7.411069       201.6655 
 799   0.0000       7.465301       203.1412 
 800   0.0000       7.557816       205.6586 
 801   0.0000       7.619103       207.3263 
 802   0.0000       7.692421       209.3214 
 803   0.0000       7.887137       214.6199 
 804   0.0000       8.280956       225.3363 
 805   0.0000      23.370754       635.9506 
 806   0.0000      23.646893       643.4647 
 807   0.0000      23.662535       643.8903 
 808   0.0000      23.706056       645.0746 
 809   0.0000      23.745936       646.1598 
 810   0.0000      23.896912       650.2680 
 811   0.0000      23.921226       650.9297 
 812   0.0000      24.054684       654.5612 
 813   0.0000      24.106415       655.9689 
 814   0.0000      44.705162      1216.4893 
 815   0.0000      44.730839      1217.1880 
 816   0.0000      44.761731      1218.0286 
 817   0.0000      44.850856      1220.4538 
 818   0.0000      44.951714      1223.1983 
 819   0.0000      45.015708      1224.9397 
 820   0.0000      49.852624      1356.5589 
 821   0.0000      50.351874      1370.1442 
 822   0.0000      50.946932      1386.3365 
 823   0.0000      68.506722      1864.1627 
 824   0.0000     512.906509     13956.8957 

                    ********************************
                    * MULLIKEN POPULATION ANALYSIS *
                    ********************************

-----------------------
MULLIKEN ATOMIC CHARGES
-----------------------
   0 Re:    0.065369
   1 C :    0.645042
   2 C :    0.463341
   3 C :    0.309307
   4 Br:   -0.492359
   5 O :   -0.454349
   6 O :   -0.386847
   7 O :   -0.427474
   8 C :   -0.658567
   9 C :   -0.166096
  10 C :    0.756076
  11 C :    0.268187
  12 O :   -0.614472
  13 O :   -0.274493
  14 C :   -0.518574
  15 O :   -0.516179
  16 H :    0.408401
  17 C :   -0.602569
  18 H :    0.220672
  19 H :    0.294601
  20 H :    0.287665
  21 H :    0.205181
  22 H :    0.399862
  23 H :    0.187521
  24 H :    0.600754
Sum of atomic charges:   -0.0000000

--------------------------------
MULLIKEN REDUCED ORBITAL CHARGES
--------------------------------
  0 Res       :     2.564564  s :     2.564564
      pz      :     2.102929  p :     6.435565
      px      :     2.072855
      py      :     2.259780
      dz2     :     1.246985  d :     5.778132
      dxz     :     0.982263
      dyz     :     1.172733
      dx2y2   :     1.520466
      dxy     :     0.855685
      f0      :     0.013796  f :     0.150022
      f+1     :     0.024366
      f-1     :     0.016113
      f+2     :     0.010384
      f-2     :     0.039674
      f+3     :     0.024721
      f-3     :     0.020967
      g0      :     0.000552  g :     0.006348
      g+1     :     0.000683
      g-1     :     0.000474
      g+2     :     0.000427
      g-2     :     0.001247
      g+3     :     0.000797
      g-3     :     0.000862
      g+4     :     0.000953
      g-4     :     0.000352
  1 C s       :     3.216445  s :     3.216445
      pz      :     0.657095  p :     2.014402
      px      :     0.674433
      py      :     0.682874
      dz2     :     0.045411  d :     0.104504
      dxz     :     0.011469
      dyz     :    -0.004942
      dx2y2   :     0.041450
      dxy     :     0.011116
      f0      :     0.001630  f :     0.019608
      f+1     :     0.002362
      f-1     :     0.003405
      f+2     :     0.003508
      f-2     :     0.003447
      f+3     :     0.002385
      f-3     :     0.002870
  2 C s       :     3.288339  s :     3.288339
      pz      :     0.754225  p :     2.093733
      px      :     0.700159
      py      :     0.639349
      dz2     :     0.033879  d :     0.134306
      dxz     :     0.018889
      dyz     :     0.036059
      dx2y2   :     0.027609
      dxy     :     0.017870
      f0      :     0.004718  f :     0.020281
      f+1     :     0.004125
      f-1     :     0.002903
      f+2     :     0.003589
      f-2     :     0.003395
      f+3     :     0.000806
      f-3     :     0.000744
  3 C s       :     3.418972  s :     3.418972
      pz      :     0.643404  p :     2.116235
      px      :     0.735891
      py      :     0.736940
      dz2     :     0.003065  d :     0.135864
      dxz     :     0.032177
      dyz     :     0.041774
      dx2y2   :     0.071051
      dxy     :    -0.012203
      f0      :     0.002203  f :     0.019620
      f+1     :     0.001721
      f-1     :     0.001693
      f+2     :     0.000506
      f-2     :     0.003881
      f+3     :     0.004886
      f-3     :     0.004730
  4 Brs       :     8.019630  s :     8.019630
      pz      :     5.930665  p :    17.450592
      px      :     5.745080
      py      :     5.774848
      dz2     :     2.002827  d :    10.019749
      dxz     :     2.003457
      dyz     :     2.003187
      dx2y2   :     2.000953
      dxy     :     2.009326
      f0      :     0.000297  f :     0.002388
      f+1     :     0.000198
      f-1     :     0.000213
      f+2     :     0.000102
      f-2     :     0.000467
      f+3     :     0.000596
      f-3     :     0.000514
  5 O s       :     4.056929  s :     4.056929
      pz      :     1.514630  p :     4.350435
      px      :     1.421293
      py      :     1.414513
      dz2     :     0.003821  d :     0.045209
      dxz     :     0.009207
      dyz     :     0.007051
      dx2y2   :     0.016546
      dxy     :     0.008585
      f0      :     0.000210  f :     0.001776
      f+1     :     0.000144
      f-1     :     0.000140
      f+2     :     0.000041
      f-2     :     0.000377
      f+3     :     0.000444
      f-3     :     0.000420
  6 O s       :     4.040866  s :     4.040866
      pz      :     1.428263  p :     4.295036
      px      :     1.444807
      py      :     1.421965
      dz2     :     0.011565  d :     0.049090
      dxz     :     0.008066
      dyz     :     0.008750
      dx2y2   :     0.011575
      dxy     :     0.009135
      f0      :     0.000136  f :     0.001855
      f+1     :     0.000240
      f-1     :     0.000351
      f+2     :     0.000370
      f-2     :     0.000261
      f+3     :     0.000217
      f-3     :     0.000281
  7 O s       :     4.058197  s :     4.058197
      pz      :     1.372778  p :     4.321768
      px      :     1.460859
      py      :     1.488131
      dz2     :     0.014121  d :     0.045689
      dxz     :     0.010923
      dyz     :     0.010020
      dx2y2   :     0.005604
      dxy     :     0.005022
      f0      :     0.000474  f :     0.001819
      f+1     :     0.000318
      f-1     :     0.000258
      f+2     :     0.000338
      f-2     :     0.000301
      f+3     :     0.000071
      f-3     :     0.000059
  8 C s       :     3.659842  s :     3.659842
      pz      :     0.968018  p :     2.883332
      px      :     0.997865
      py      :     0.917449
      dz2     :     0.012647  d :     0.107789
      dxz     :     0.032989
      dyz     :     0.025301
      dx2y2   :     0.006851
      dxy     :     0.030003
      f0      :     0.001739  f :     0.007603
      f+1     :     0.001342
      f-1     :     0.000672
      f+2     :     0.000969
      f-2     :     0.000675
      f+3     :     0.001162
      f-3     :     0.001044
  9 C s       :     3.415622  s :     3.415622
      pz      :     0.933073  p :     2.702034
      px      :     0.839836
      py      :     0.929125
      dz2     :     0.008954  d :     0.042499
      dxz     :    -0.012392
      dyz     :    -0.021696
      dx2y2   :     0.017595
      dxy     :     0.050038
      f0      :     0.001002  f :     0.005941
      f+1     :     0.000688
      f-1     :     0.000169
      f+2     :     0.001099
      f-2     :     0.000441
      f+3     :     0.001372
      f-3     :     0.001170
 10 C s       :     2.873338  s :     2.873338
      pz      :     0.703644  p :     2.201122
      px      :     0.680576
      py      :     0.816902
      dz2     :     0.021605  d :     0.162092
      dxz     :     0.049478
      dyz     :     0.009459
      dx2y2   :     0.015341
      dxy     :     0.066209
      f0      :     0.001335  f :     0.007372
      f+1     :     0.001478
      f-1     :     0.000972
      f+2     :     0.000772
      f-2     :     0.001020
      f+3     :     0.000870
      f-3     :     0.000924
 11 C s       :     3.448057  s :     3.448057
      pz      :     0.565766  p :     2.005872
      px      :     0.785012
      py      :     0.655095
      dz2     :     0.049376  d :     0.252390
      dxz     :     0.076440
      dyz     :     0.062349
      dx2y2   :     0.039739
      dxy     :     0.024486
      f0      :     0.004679  f :     0.025494
      f+1     :     0.006507
      f-1     :     0.003826
      f+2     :     0.003296
      f-2     :     0.003847
      f+3     :     0.001617
      f-3     :     0.001723
 12 O s       :     4.050483  s :     4.050483
      pz      :     1.305894  p :     4.546496
      px      :     1.655408
      py      :     1.585194
      dz2     :     0.008503  d :     0.015670
      dxz     :    -0.001127
      dyz     :     0.007887
      dx2y2   :     0.001508
      dxy     :    -0.001102
      f0      :     0.000598  f :     0.001823
      f+1     :     0.000384
      f-1     :     0.000475
      f+2     :     0.000166
      f-2     :     0.000169
      f+3     :     0.000021
      f-3     :     0.000010
 13 O s       :     3.878157  s :     3.878157
      pz      :     1.555975  p :     4.375826
      px      :     1.346127
      py      :     1.473723
      dz2     :     0.002343  d :     0.018375
      dxz     :     0.004679
      dyz     :     0.010121
      dx2y2   :     0.002542
      dxy     :    -0.001309
      f0      :     0.000194  f :     0.002135
      f+1     :     0.000367
      f-1     :     0.000117
      f+2     :     0.000311
      f-2     :     0.000412
      f+3     :     0.000379
      f-3     :     0.000355
 14 C s       :     3.625364  s :     3.625364
      pz      :     0.529372  p :     2.479266
      px      :     0.949488
      py      :     1.000406
      dz2     :     0.071290  d :     0.401104
      dxz     :     0.078527
      dyz     :    -0.018717
      dx2y2   :     0.176669
      dxy     :     0.093334
      f0      :     0.002697  f :     0.012839
      f+1     :     0.002026
      f-1     :     0.002123
      f+2     :     0.001921
      f-2     :     0.001920
      f+3     :     0.001041
      f-3     :     0.001112
 15 O s       :     3.995290  s :     3.995290
      pz      :     1.418656  p :     4.518211
      px      :     1.546745
      py      :     1.552810
      dz2     :     0.001718  d :     0.001577
      dxz     :    -0.003173
      dyz     :    -0.003031
      dx2y2   :    -0.003583
      dxy     :     0.009646
      f0      :     0.000210  f :     0.001101
      f+1     :     0.000086
      f-1     :     0.000361
      f+2     :     0.000224
      f-2     :     0.000168
      f+3     :     0.000015
      f-3     :     0.000038
 16 H s       :     0.483849  s :     0.483849
      pz      :    -0.014341  p :     0.098502
      px      :     0.076500
      py      :     0.036343
      dz2     :     0.001129  d :     0.009248
      dxz     :     0.001724
      dyz     :     0.000682
      dx2y2   :     0.002713
      dxy     :     0.003001
 17 C s       :     3.377082  s :     3.377082
      pz      :     1.149398  p :     3.087529
      px      :     1.014170
      py      :     0.923960
      dz2     :     0.026420  d :     0.130846
      dxz     :     0.051619
[...]
      px      :     0.014281
      py      :     0.006776
      dz2     :     0.000742  d :     0.002125
      dxz     :     0.000536
      dyz     :     0.000361
      dx2y2   :     0.000240
      dxy     :     0.000247
 24 H s       :     0.393803  s :     0.393803
      pz      :    -0.002134  p :     0.002622
      px      :     0.003622
      py      :     0.001134
      dz2     :     0.000192  d :     0.002821
      dxz     :     0.000174
      dyz     :     0.000915
      dx2y2   :     0.000866
      dxy     :     0.000674


                     *******************************
                     * LOEWDIN POPULATION ANALYSIS *
                     *******************************

----------------------
LOEWDIN ATOMIC CHARGES
----------------------
   0 Re:    0.526238
   1 C :   -0.266793
   2 C :   -0.310971
   3 C :   -0.258310
   4 Br:    0.168745
   5 O :    0.110361
   6 O :    0.140505
   7 O :    0.136297
   8 C :    0.016760
   9 C :    0.029451
  10 C :   -0.090717
  11 C :   -0.485016
  12 O :    0.119333
  13 O :    0.042412
  14 C :   -0.145732
  15 O :    0.144968
  16 H :   -0.208842
  17 C :    0.191487
  18 H :    0.014427
  19 H :    0.015271
  20 H :    0.005554
  21 H :   -0.032024
  22 H :    0.073778
  23 H :    0.019610
  24 H :    0.043209

-------------------------------
LOEWDIN REDUCED ORBITAL CHARGES
-------------------------------
  0 Res       :     1.933609  s :     1.933609
      pz      :     2.107663  p :     6.425137
      px      :     2.154758
      py      :     2.162716
      dz2     :     1.206499  d :     5.714942
      dxz     :     1.017013
      dyz     :     1.189127
      dx2y2   :     1.306332
      dxy     :     0.995971
      f0      :     0.033021  f :     0.375179
      f+1     :     0.062850
      f-1     :     0.042535
      f+2     :     0.025647
      f-2     :     0.094081
      f+3     :     0.062800
      f-3     :     0.054245
      g0      :     0.002189  g :     0.024895
      g+1     :     0.002724
      g-1     :     0.001831
      g+2     :     0.001676
      g-2     :     0.004980
      g+3     :     0.003001
      g-3     :     0.003111
      g+4     :     0.003831
      g-4     :     0.001551
  1 C s       :     2.899116  s :     2.899116
      pz      :     0.767100  p :     2.334688
      px      :     0.761849
      py      :     0.805739
      dz2     :     0.208594  d :     0.942646
      dxz     :     0.159422
      dyz     :     0.175819
      dx2y2   :     0.221210
      dxy     :     0.177600
      f0      :     0.007919  f :     0.090342
      f+1     :     0.010566
      f-1     :     0.015012
      f+2     :     0.015717
      f-2     :     0.017732
      f+3     :     0.011068
      f-3     :     0.012327
  2 C s       :     2.872336  s :     2.872336
      pz      :     0.923535  p :     2.340123
      px      :     0.753003
      py      :     0.663585
      dz2     :     0.288097  d :     1.006904
      dxz     :     0.232462
      dyz     :     0.233477
      dx2y2   :     0.123612
      dxy     :     0.129255
      f0      :     0.020169  f :     0.091609
      f+1     :     0.020649
      f-1     :     0.013413
      f+2     :     0.015633
      f-2     :     0.015618
      f+3     :     0.003136
      f-3     :     0.002990
  3 C s       :     2.874331  s :     2.874331
      pz      :     0.650826  p :     2.335873
      px      :     0.850770
      py      :     0.834277
      dz2     :     0.102203  d :     0.958779
      dxz     :     0.151679
      dyz     :     0.178109
      dx2y2   :     0.304652
      dxy     :     0.222135
      f0      :     0.009610  f :     0.089327
      f+1     :     0.008072
      f-1     :     0.007835
      f+2     :     0.002024
      f-2     :     0.017392
      f+3     :     0.022515
      f-3     :     0.021880
  4 Brs       :     7.614528  s :     7.614528
      pz      :     5.790758  p :    17.033990
      px      :     5.597721
      py      :     5.645511
      dz2     :     2.016199  d :    10.178874
      dxz     :     2.033181
      dyz     :     2.031393
      dx2y2   :     2.055750
      dxy     :     2.042351
      f0      :     0.000496  f :     0.003864
      f+1     :     0.000263
      f-1     :     0.000295
      f+2     :     0.000124
      f-2     :     0.000814
      f+3     :     0.001011
      f-3     :     0.000862
  5 O s       :     3.385985  s :     3.385985
      pz      :     1.372051  p :     4.298919
      px      :     1.464835
      py      :     1.462033
      dz2     :     0.026043  d :     0.198319
      dxz     :     0.026539
      dyz     :     0.025076
      dx2y2   :     0.042801
      dxy     :     0.077860
      f0      :     0.000609  f :     0.006416
      f+1     :     0.000658
      f-1     :     0.000636
      f+2     :     0.000093
      f-2     :     0.001102
      f+3     :     0.001645
      f-3     :     0.001673
  6 O s       :     3.382927  s :     3.382927
      pz      :     1.417381  p :     4.276918
      px      :     1.416559
      py      :     1.442978
      dz2     :     0.026969  d :     0.193064
      dxz     :     0.038945
      dyz     :     0.050329
      dx2y2   :     0.029200
      dxy     :     0.047622
      f0      :     0.000693  f :     0.006587
      f+1     :     0.000616
      f-1     :     0.000905
      f+2     :     0.000864
      f-2     :     0.001935
      f+3     :     0.000858
      f-3     :     0.000716
  7 O s       :     3.378861  s :     3.378861
      pz      :     1.503324  p :     4.284501
      px      :     1.414243
      py      :     1.366934
      dz2     :     0.054839  d :     0.193784
      dxz     :     0.066682
      dyz     :     0.040185
      dx2y2   :     0.016063
      dxy     :     0.016016
      f0      :     0.001125  f :     0.006557
      f+1     :     0.002026
      f-1     :     0.000971
      f+2     :     0.000971
      f-2     :     0.001129
      f+3     :     0.000157
      f-3     :     0.000179
  8 C s       :     2.647263  s :     2.647263
      pz      :     0.873796  p :     2.575921
      px      :     0.946239
      py      :     0.755886
      dz2     :     0.156323  d :     0.711667
      dxz     :     0.248787
      dyz     :     0.094572
      dx2y2   :     0.102403
      dxy     :     0.109582
      f0      :     0.012758  f :     0.048389
      f+1     :     0.009003
      f-1     :     0.005562
      f+2     :     0.005866
      f-2     :     0.004161
      f+3     :     0.005276
      f-3     :     0.005764
  9 C s       :     2.694767  s :     2.694767
      pz      :     0.800652  p :     2.544892
      px      :     0.968402
      py      :     0.775837
      dz2     :     0.136906  d :     0.696811
      dxz     :     0.213295
      dyz     :     0.076338
      dx2y2   :     0.144486
      dxy     :     0.125787
      f0      :     0.006242  f :     0.034079
      f+1     :     0.006003
      f-1     :     0.001787
      f+2     :     0.005849
      f-2     :     0.002703
      f+3     :     0.006151
      f-3     :     0.005345
 10 C s       :     2.576326  s :     2.576326
      pz      :     0.867762  p :     2.565191
      px      :     0.829203
      py      :     0.868227
      dz2     :     0.192312  d :     0.893753
      dxz     :     0.203305
      dyz     :     0.157992
      dx2y2   :     0.148840
      dxy     :     0.191304
      f0      :     0.007981  f :     0.055446
      f+1     :     0.009755
      f-1     :     0.007233
      f+2     :     0.008922
      f-2     :     0.007985
      f+3     :     0.007424
      f-3     :     0.006147
 11 C s       :     2.608637  s :     2.608637
      pz      :     0.843094  p :     2.306258
      px      :     0.734260
      py      :     0.728904
      dz2     :     0.354644  d :     1.408543
      dxz     :     0.358231
      dyz     :     0.295370
      dx2y2   :     0.194911
      dxy     :     0.205387
      f0      :     0.028117  f :     0.161578
      f+1     :     0.043436
      f-1     :     0.024892
      f+2     :     0.022962
      f-2     :     0.020653
      f+3     :     0.010206
      f-3     :     0.011313
 12 O s       :     3.272660  s :     3.272660
      pz      :     1.440605  p :     4.306025
      px      :     1.437884
      py      :     1.427537
      dz2     :     0.083285  d :     0.295717
      dxz     :     0.068879
      dyz     :     0.074338
      dx2y2   :     0.040781
      dxy     :     0.028434
      f0      :     0.001892  f :     0.006265
      f+1     :     0.001431
      f-1     :     0.001801
      f+2     :     0.000506
      f-2     :     0.000497
      f+3     :     0.000085
      f-3     :     0.000054
 13 O s       :     3.167741  s :     3.167741
      pz      :     1.499099  p :     4.263386
      px      :     1.364046
      py      :     1.400241
      dz2     :     0.088077  d :     0.519307
      dxz     :     0.114190
      dyz     :     0.079358
      dx2y2   :     0.117353
      dxy     :     0.120330
      f0      :     0.000824  f :     0.007153
      f+1     :     0.001527
      f-1     :     0.000601
      f+2     :     0.001253
      f-2     :     0.001224
      f+3     :     0.000646
      f-3     :     0.001079
 14 C s       :     2.614918  s :     2.614918
      pz      :     0.691587  p :     2.357482
      px      :     0.830660
      py      :     0.835236
      dz2     :     0.312007  d :     1.090601
      dxz     :     0.204061
      dyz     :     0.185091
      dx2y2   :     0.198980
      dxy     :     0.190462
      f0      :     0.015701  f :     0.082731
      f+1     :     0.013581
      f-1     :     0.016101
      f+2     :     0.011658
      f-2     :     0.012128
      f+3     :     0.007177
      f-3     :     0.006385
 15 O s       :     3.152916  s :     3.152916
      pz      :     1.400712  p :     4.259579
      px      :     1.433828
      py      :     1.425039
      dz2     :     0.102451  d :     0.437179
      dxz     :     0.085939
      dyz     :     0.100135
      dx2y2   :     0.081629
      dxy     :     0.067025
      f0      :     0.000936  f :     0.005359
      f+1     :     0.000877
      f-1     :     0.000979
      f+2     :     0.000896
      f-2     :     0.000747
      f+3     :     0.000329
      f-3     :     0.000594
 16 H s       :     0.514654  s :     0.514654
      pz      :     0.116312  p :     0.602405
      px      :     0.329276
      py      :     0.156816
      dz2     :     0.010814  d :     0.091783
      dxz     :     0.019123
      dyz     :     0.007475
      dx2y2   :     0.028406
      dxy     :     0.025966
 17 C s       :     2.632292  s :     2.632292
      pz      :     0.919077  p :     2.543442
      px      :     0.832113
      py      :     0.792253
      dz2     :     0.078004  d :     0.572672
      dxz     :     0.158263
      dyz     :     0.081779
      dx2y2   :     0.121988
      dxy     :     0.132638
      f0      :     0.005748  f :     0.060106
      f+1     :     0.006898
      f-1     :     0.008215
      f+2     :     0.005699
      f-2     :     0.010063
      f+3     :     0.012951
      f-3     :     0.010533
 18 H s       :     0.700362  s :     0.700362
      pz      :     0.104826  p :     0.255228
      px      :     0.088915
      py      :     0.061487
      dz2     :     0.007814  d :     0.029983
      dxz     :     0.008929
      dyz     :     0.005298
      dx2y2   :     0.003801
      dxy     :     0.004139
 19 H s       :     0.689572  s :     0.689572
      pz      :     0.118665  p :     0.265279
      px      :     0.084428
      py      :     0.062187
      dz2     :     0.009983  d :     0.029877
      dxz     :     0.008882
      dyz     :     0.005625
      dx2y2   :     0.002141
      dxy     :     0.003246
 20 H s       :     0.680293  s :     0.680293
      pz      :     0.075775  p :     0.284220
      px      :     0.103818
      py      :     0.104628
      dz2     :     0.003283  d :     0.029933
      dxz     :     0.003788
      dyz     :     0.006705
      dx2y2   :     0.007718
      dxy     :     0.008438
 21 H s       :     0.697168  s :     0.697168
      pz      :     0.117055  p :     0.304416
      px      :     0.100970
      py      :     0.086391
      dz2     :     0.008685  d :     0.030440
      dxz     :     0.009089
      dyz     :     0.005329
      dx2y2   :     0.003458
      dxy     :     0.003879
 22 H s       :     0.649077  s :     0.649077
      pz      :     0.067108  p :     0.246524
      px      :     0.074152
      py      :     0.105265
      dz2     :     0.003799  d :     0.030620
      dxz     :     0.002234
      dyz     :     0.007256
      dx2y2   :     0.008820
      dxy     :     0.008510
 23 H s       :     0.701161  s :     0.701161
      pz      :     0.098872  p :     0.250154
      px      :     0.076762
      py      :     0.074519
      dz2     :     0.008870  d :     0.029076
      dxz     :     0.008124
      dyz     :     0.006210
      dx2y2   :     0.002891
      dxy     :     0.002980
 24 H s       :     0.665349  s :     0.665349
      pz      :     0.060773  p :     0.260678
      px      :     0.084599
      py      :     0.115306
      dz2     :     0.003693  d :     0.030763
      dxz     :     0.001313
      dyz     :     0.006705
      dx2y2   :     0.009562
      dxy     :     0.009490


                      *****************************
                      * MAYER POPULATION ANALYSIS *
                      *****************************

  NA   - Mulliken gross atomic population
  ZA   - Total nuclear charge
  QA   - Mulliken gross atomic charge
  VA   - Mayer's total valence
  BVA  - Mayer's bonded valence
  FA   - Mayer's free valence

  ATOM       NA         ZA         QA         VA         BVA        FA
  0 Re    14.9346    15.0000     0.0654     5.7176     5.7176     0.0000
  1 C      5.3550     6.0000     0.6450     3.0055     3.0055     0.0000
  2 C      5.5367     6.0000     0.4633     3.3760     3.3760     0.0000
  3 C      5.6907     6.0000     0.3093     3.1993     3.1993     0.0000
  4 Br    35.4924    35.0000    -0.4924     0.8852     0.8852     0.0000
  5 O      8.4543     8.0000    -0.4543     2.0332     2.0332    -0.0000
  6 O      8.3868     8.0000    -0.3868     2.1378     2.1378     0.0000
  7 O      8.4275     8.0000    -0.4275     2.1060     2.1060    -0.0000
  8 C      6.6586     6.0000    -0.6586     3.5939     3.5939    -0.0000
  9 C      6.1661     6.0000    -0.1661     3.5886     3.5886    -0.0000
 10 C      5.2439     6.0000     0.7561     2.9506     2.9506    -0.0000
 11 C      5.7318     6.0000     0.2682     3.1652     3.1652    -0.0000
 12 O      8.6145     8.0000    -0.6145     1.5769     1.5769     0.0000
 13 O      8.2745     8.0000    -0.2745     1.7658     1.7658    -0.0000
 14 C      6.5186     6.0000    -0.5186     3.5143     3.5143    -0.0000
 15 O      8.5162     8.0000    -0.5162     1.8592     1.8592     0.0000
 16 H      0.5916     1.0000     0.4084     0.7733     0.7733     0.0000
 17 C      6.6026     6.0000    -0.6026     3.5140     3.5140     0.0000
 18 H      0.7793     1.0000     0.2207     1.0243     1.0243     0.0000
 19 H      0.7054     1.0000     0.2946     0.9544     0.9544    -0.0000
 20 H      0.7123     1.0000     0.2877     0.9633     0.9633    -0.0000
 21 H      0.7948     1.0000     0.2052     1.0401     1.0401    -0.0000
 22 H      0.6001     1.0000     0.3999     0.8575     0.8575     0.0000
 23 H      0.8125     1.0000     0.1875     0.9815     0.9815    -0.0000
 24 H      0.3992     1.0000     0.6008     0.5307     0.5307    -0.0000

  Mayer bond orders larger than 0.100000
B(  0-Re,  1-C ) :   1.1851 B(  0-Re,  2-C ) :   1.4068 B(  0-Re,  3-C ) :   1.3868 
B(  0-Re,  4-Br) :   0.4912 B(  0-Re,  9-C ) :   0.3310 B(  0-Re, 14-C ) :   0.4488 
B(  0-Re, 15-O ) :   0.3864 B(  1-C ,  2-C ) :  -0.1670 B(  1-C ,  6-O ) :   2.0316 
B(  2-C ,  7-O ) :   1.9812 B(  2-C ,  9-C ) :   0.1331 B(  3-C ,  5-O ) :   1.8989 
B(  4-Br, 11-C ) :   0.1701 B(  8-C ,  9-C ) :   1.7054 B(  8-C , 10-C ) :   0.7360 
B(  8-C , 14-C ) :   0.1336 B(  8-C , 23-H ) :   1.0725 B(  9-C , 14-C ) :   0.2427 
B(  9-C , 21-H ) :   1.0181 B( 10-C , 11-C ) :   0.3981 B( 10-C , 14-C ) :   0.8526 
B( 10-C , 22-H ) :   0.8806 B( 11-C , 12-O ) :   1.3985 B( 11-C , 13-O ) :   0.8660 
B( 11-C , 14-C ) :   0.3071 B( 13-O , 17-C ) :   0.7197 B( 14-C , 15-O ) :   0.6445 
B( 14-C , 24-H ) :   0.6849 B( 15-O , 16-H ) :   0.8221 B( 17-C , 18-H ) :   1.0019 
B( 17-C , 19-H ) :   0.9195 B( 17-C , 20-H ) :   0.9022 

-------
TIMINGS
-------

Total SCF time: 0 days 0 hours 12 min 4 sec 

Total time                  ....     724.429 sec
Sum of individual times     ....     723.079 sec  ( 99.8%)

Fock matrix formation       ....     716.383 sec  ( 98.9%)
  XC integration            ....      10.495 sec  (  1.5% of F)
    Basis function eval.    ....       0.934 sec  (  8.9% of XC)
    Density eval.           ....       3.482 sec  ( 33.2% of XC)
    XC-Functional eval.     ....       0.093 sec  (  0.9% of XC)
    XC-Potential eval.      ....       5.163 sec  ( 49.2% of XC)
Diagonalization             ....       2.418 sec  (  0.3%)
Density matrix formation    ....       0.083 sec  (  0.0%)
Population analysis         ....       0.146 sec  (  0.0%)
Initial guess               ....       1.965 sec  (  0.3%)
Orbital Transformation      ....       0.000 sec  (  0.0%)
Orbital Orthonormalization  ....       0.000 sec  (  0.0%)
DIIS solution               ....       1.225 sec  (  0.2%)
Grid generation             ....       0.858 sec  (  0.1%)

-------------------------   --------------------
FINAL SINGLE POINT ENERGY     -3451.519115943448
-------------------------   --------------------


                            ***************************************
                            *     ORCA property calculations      *
                            ***************************************

                                    ---------------------
                                    Active property flags
                                    ---------------------
   (+) Dipole Moment


------------------------------------------------------------------------------
                       ORCA ELECTRIC PROPERTIES CALCULATION
------------------------------------------------------------------------------

Dipole Moment Calculation                       ... on
Quadrupole Moment Calculation                   ... off
Polarizability Calculation                      ... off
GBWName                                         ... TMB20_T2.gbw
Electron density file                           ... TMB20_T2.scfp
The origin for moment calculation is the CENTER OF MASS  = ( 0.189534, -0.079925 -0.006726)

-------------
DIPOLE MOMENT
-------------
                                X             Y             Z
Electronic contribution:    141.20611      -0.63357      -7.48017
Nuclear contribution   :   -143.25315       2.56406       7.67326
                        -----------------------------------------
Total Dipole Moment    :     -2.04703       1.93049       0.19309
                        -----------------------------------------
Magnitude (a.u.)       :      2.82036
Magnitude (Debye)      :      7.16878



--------------------
Rotational spectrum 
--------------------
 
Rotational constants in cm-1:     0.017495     0.008280     0.007326 
Rotational constants in MHz :   524.496520   248.224980   219.630549 

 Dipole components along the rotational axes: 
x,y,z [a.u.] :    -2.015639     1.955352     0.261195 
x,y,z [Debye]:    -5.123347     4.970110     0.663904 

 

Timings for individual modules:

Sum of individual times         ...      728.726 sec (=  12.145 min)
GTO integral calculation        ...        3.897 sec (=   0.065 min)   0.5 %
SCF iterations                  ...      724.829 sec (=  12.080 min)  99.5 %
                             ****ORCA TERMINATED NORMALLY****
TOTAL RUN TIME: 0 days 0 hours 12 minutes 9 seconds 346 msec
