
                                 *****************
                                 * O   R   C   A *
                                 *****************

           --- An Ab Initio, DFT and Semiempirical electronic structure package ---

                  #######################################################
                  #                        -***-                        #
                  #          Department of theory and spectroscopy      #
                  #               Directorship: Frank Neese             #
                  #        Max Planck Institute fuer Kohlenforschung    #
                  #                Kaiser Wilhelm Platz 1               #
                  #                 D-45470 Muelheim/Ruhr               #
                  #                      Germany                        #
                  #                                                     #
                  #                  All rights reserved                #
                  #                        -***-                        #
                  #######################################################


                         Program Version 4.2.0 -  RELEASE  -


 With contributions from (in alphabetic order):
   Daniel Aravena         : Magnetic Suceptibility
   Michael Atanasov       : Ab Initio Ligand Field Theory (pilot matlab implementation)
   Alexander A. Auer      : GIAO ZORA, VPT2
   Ute Becker             : Parallelization
   Giovanni Bistoni       : ED, misc. LED, open-shell LED, HFLED
   Martin Brehm           : Molecular dynamics
   Dmytro Bykov           : SCF Hessian
   Vijay G. Chilkuri      : MRCI spin determinant printing, contributions to CSF-ICE
   Dipayan Datta          : RHF DLPNO-CCSD density
   Achintya Kumar Dutta   : EOM-CC, STEOM-CC
   Dmitry Ganyushin       : Spin-Orbit,Spin-Spin,Magnetic field MRCI
   Miquel Garcia          : C-PCM Hessian, Gaussian charge scheme
   Yang Guo               : DLPNO-NEVPT2, CIM, IAO-localization
   Andreas Hansen         : Spin unrestricted coupled pair/coupled cluster methods
   Benjamin Helmich-Paris : CASSCF linear response (MC-RPA)
   Lee Huntington         : MR-EOM, pCC
   Robert Izsak           : Overlap fitted RIJCOSX, COSX-SCS-MP3, EOM
   Christian Kollmar      : KDIIS, OOCD, Brueckner-CCSD(T), CCSD density
   Simone Kossmann        : Meta GGA functionals, TD-DFT gradient, OOMP2, MP2 Hessian
   Martin Krupicka        : AUTO-CI
   Lucas Lang             : DCDCAS
   Dagmar Lenk            : GEPOL surface, SMD
   Dimitrios Liakos       : Extrapolation schemes; Compound Job, initial MDCI parallelization
   Dimitrios Manganas     : Further ROCIS development; embedding schemes
   Dimitrios Pantazis     : SARC Basis sets
   Taras Petrenko         : DFT Hessian,TD-DFT gradient, ASA, ECA, R-Raman, ABS, FL, XAS/XES, NRVS
   Peter Pinski           : DLPNO-MP2, DLPNO-MP2 Gradient
   Christoph Reimann      : Effective Core Potentials
   Marius Retegan         : Local ZFS, SOC
   Christoph Riplinger    : Optimizer, TS searches, QM/MM, DLPNO-CCSD(T), (RO)-DLPNO pert. Triples
   Tobias Risthaus        : Range-separated hybrids, TD-DFT gradient, RPA, STAB
   Michael Roemelt        : Original ROCIS implementation
   Masaaki Saitow         : Open-shell DLPNO-CCSD energy and density
   Barbara Sandhoefer     : DKH picture change effects
   Avijit Sen             : IP-ROCIS
   Kantharuban Sivalingam : CASSCF convergence, NEVPT2, FIC-MRCI
   Bernardo de Souza      : ESD, SOC TD-DFT
   Georgi Stoychev        : AutoAux, RI-MP2 NMR
   Willem Van den Heuvel  : Paramagnetic NMR
   Boris Wezisla          : Elementary symmetry handling
   Frank Wennmohs         : Technical directorship


 We gratefully acknowledge several colleagues who have allowed us to
 interface, adapt or use parts of their codes:
   Stefan Grimme, W. Hujo, H. Kruse,             : VdW corrections, initial TS optimization,
                  C. Bannwarth                     DFT functionals, gCP, sTDA/sTD-DF
   Ed Valeev, F. Pavosevic, A. Kumar             : LibInt (2-el integral package), F12 methods
   Garnet Chan, S. Sharma, J. Yang, R. Olivares  : DMRG
   Ulf Ekstrom                                   : XCFun DFT Library
   Mihaly Kallay                                 : mrcc  (arbitrary order and MRCC methods)
   Andreas Klamt, Michael Diedenhofen            : otool_cosmo (COSMO solvation model)
   Jiri Pittner, Ondrej Demel                    : Mk-CCSD
   Frank Weinhold                                : gennbo (NPA and NBO analysis)
   Christopher J. Cramer and Donald G. Truhlar   : smd solvation model
   Lars Goerigk                                  : TD-DFT with DH, B97 family of functionals
   V. Asgeirsson, H. Jonsson                     : NEB implementation
   FAccTs GmbH                                   : IRC, NEB, NEB-TS, Multilevel, MM, QM/MM, CI optimization
   S Lehtola, MJT Oliveira, MAL Marques          : LibXC Library


 Your calculation uses the libint2 library for the computation of 2-el integrals
 For citations please refer to: http://libint.valeyev.net

 Your ORCA version has been built with support for libXC version: 4.2.3
 For citations please refer to: https://tddft.org/programs/libxc/

 This ORCA versions uses:
   CBLAS   interface :  Fast vector & matrix operations
   LAPACKE interface :  Fast linear algebra routines
   SCALAPACK package :  Parallel linear algebra routines


Your calculation utilizes the DFT-NL dispersion correction.
Cite in your paper:
Vydrov, O. A.; Van Voorhis, T. J. Chem. Phys. 2010, 133, 244103
Hujo, W.; Grimme, S. J. Chem. Theory Comput. 2011, 7, 3866 
   

----- Orbital basis set information -----
Your calculation utilizes the basis: def2-TZVPPD
   F. Weigend and R. Ahlrichs, Phys. Chem. Chem. Phys. 7, 3297 (2005).
   D. Rappoport and F. Furche, J. Chem. Phys. 133 134105 (2010).

----- AuxJK basis set information -----
Your calculation utilizes the auxiliary basis: def2/JK
   H-Ba, Hf-Rn: F. Weigend, J. Comput. Chem. 29, 167 (2008).

cite the ECPs for Au [Def2-ECP] as follows:
Ce-Yb(ecp-28): M. Dolg, H. Stoll, H.Preuss, J. Chem. Phys., 1989, 90, 1730-1734.
Y-Cd(ecp-28), Hf-Hg(ecp-46): D. Andrae,U. Haeussermann, M. Dolg, H. Stoll, H. Preuss, Theor. Chim. Acta, 1990, 77, 123-141.
In-Sb(ecp-28), Tl-Bi(ecp-46): B. Metz, H. Stoll, M. Dolg, J. Chem. Phys., 2000, 113, 2563-2569.
Te-Xe(ecp-28), Po-Rn(ecp-46): K. A. Peterson, D. Figgen, E. Goll, H. Stoll, M. Dolg, J. Chem. Phys., 2003, 119, 11113-11123.
Rb(ecp-28), Cs(ecp-46): T. Leininger, A. Nicklass, W. Kuechle, H. Stoll, M. Dolg, A. Bergner, Chem. Phys. Lett., 1996, 255, 274-280.
Sr(ecp-28), Ba(ecp-46): M. Kaupp, P. V. Schleyer, H. Stoll and H. Preuss, J. Chem. Phys., 1991, 94, 1360-1366.
La(ecp-46): M. Dolg, H. Stoll, A. Savin, H. Preuss, Theor. Chim. Acta, 1989, 75, 173-194.
Lu(ecp-28): X. Cao, M. Dolg, J. Chem. Phys., 2001, 115, 7348-7355.

ECP parameters for Au [Def2-ECP] have been obtained from:
TURBOMOLE (7.0.2)

================================================================================
                                        WARNINGS
                       Please study these warnings very carefully!
================================================================================


INFO   : the flag for use of LIBINT has been found!

================================================================================
                                       INPUT FILE
================================================================================
NAME = TMB26_T1.in
|  1> #
|  2> # TMB26_T1 wB97M-V/Def2-TZVPPD
|  3> #
|  4> ! wb97m-v def2-tzvppd def2/jk grid4 nofinalgrid
|  5> 
|  6> *xyz 0 1
|  7> C       -2.466566    1.069840    0.238308 
|  8> C       -2.451721    0.070166    1.223311 
|  9> C       -3.390268   -0.966147    1.168446 
| 10> C       -4.328348   -1.022612    0.143865 
| 11> C       -4.333048   -0.013813   -0.819144 
| 12> C       -3.403006    1.027077   -0.774806 
| 13> H       -1.851874    0.172622    2.118430 
| 14> H       -5.044959   -1.827220    0.098719 
| 15> H       -3.408268    1.764270   -1.566273 
| 16> C       -1.433505    2.123552    0.250561 
| 17> C       -1.778108    3.466931    0.185146 
| 18> C       -0.064979    1.782593    0.286078 
| 19> C       -0.802488    4.453319    0.169404 
| 20> H       -2.826505    3.739000    0.161874 
| 21> C        0.907771    2.775168    0.263672 
| 22> C        0.538977    4.108677    0.211691 
| 23> H       -1.095064    5.495288    0.125305 
| 24> H        1.951961    2.493561    0.298441 
| 25> H        1.301937    4.876538    0.199556 
| 26> C        0.257789    0.377788    0.312230 
| 27> C       -0.304042   -0.722217    0.502541 
| 28> H       -0.515543   -1.762216    0.625327 
| 29> Au       2.138195   -0.491597   -0.140080 
| 30> Cl       1.419476   -1.043843   -2.240555 
| 31> Cl       4.263347   -1.139807   -0.651257 
| 32> Cl       2.780432    0.097050    1.979491 
| 33> O       -3.309425   -1.870502    2.160546 
| 34> O       -5.195970    0.025756   -1.845512 
| 35> C       -4.244039   -2.927838    2.190952 
| 36> H       -4.158173   -3.562934    1.304307 
| 37> H       -4.005337   -3.514103    3.075014 
| 38> H       -5.267556   -2.550903    2.273203 
| 39> C       -6.143948   -1.010635   -1.979012 
| 40> H       -6.717344   -0.779100   -2.873359 
| 41> H       -5.656738   -1.981777   -2.105696 
| 42> H       -6.818943   -1.047780   -1.118843 
| 43> *
| 44> 
| 45> %maxcore 5000
| 46> 
| 47> %pal
| 48> nprocs = 24
| 49> end
| 50> 
| 51> 
| 52>                          ****END OF INPUT****
================================================================================

                       ****************************
                       * Single Point Calculation *
                       ****************************

---------------------------------
CARTESIAN COORDINATES (ANGSTROEM)
---------------------------------
  C     -2.466566    1.069840    0.238308
  C     -2.451721    0.070166    1.223311
  C     -3.390268   -0.966147    1.168446
  C     -4.328348   -1.022612    0.143865
  C     -4.333048   -0.013813   -0.819144
  C     -3.403006    1.027077   -0.774806
  H     -1.851874    0.172622    2.118430
  H     -5.044959   -1.827220    0.098719
  H     -3.408268    1.764270   -1.566273
  C     -1.433505    2.123552    0.250561
  C     -1.778108    3.466931    0.185146
  C     -0.064979    1.782593    0.286078
  C     -0.802488    4.453319    0.169404
  H     -2.826505    3.739000    0.161874
  C      0.907771    2.775168    0.263672
  C      0.538977    4.108677    0.211691
  H     -1.095064    5.495288    0.125305
  H      1.951961    2.493561    0.298441
  H      1.301937    4.876538    0.199556
  C      0.257789    0.377788    0.312230
  C     -0.304042   -0.722217    0.502541
  H     -0.515543   -1.762216    0.625327
  Au     2.138195   -0.491597   -0.140080
  Cl     1.419476   -1.043843   -2.240555
  Cl     4.263347   -1.139807   -0.651257
  Cl     2.780432    0.097050    1.979491
  O     -3.309425   -1.870502    2.160546
  O     -5.195970    0.025756   -1.845512
  C     -4.244039   -2.927838    2.190952
  H     -4.158173   -3.562934    1.304307
  H     -4.005337   -3.514103    3.075014
  H     -5.267556   -2.550903    2.273203
  C     -6.143948   -1.010635   -1.979012
  H     -6.717344   -0.779100   -2.873359
  H     -5.656738   -1.981777   -2.105696
  H     -6.818943   -1.047780   -1.118843

----------------------------
CARTESIAN COORDINATES (A.U.)
----------------------------
  NO LB      ZA    FRAG     MASS         X           Y           Z
   0 C     6.0000    0    12.011   -4.661134    2.021705    0.450337
   1 C     6.0000    0    12.011   -4.633081    0.132595    2.311723
   2 C     6.0000    0    12.011   -6.406678   -1.825753    2.208043
   3 C     6.0000    0    12.011   -8.179392   -1.932457    0.271865
   4 C     6.0000    0    12.011   -8.188274   -0.026103   -1.547958
   5 C     6.0000    0    12.011   -6.430749    1.940894   -1.464171
   6 H     1.0000    0     1.008   -3.499535    0.326208    4.003253
   7 H     1.0000    0     1.008   -9.533591   -3.452945    0.186552
   8 H     1.0000    0     1.008   -6.440693    3.333987   -2.959827
   9 C     6.0000    0    12.011   -2.708932    4.012932    0.473492
  10 C     6.0000    0    12.011   -3.360137    6.551550    0.349875
  11 C     6.0000    0    12.011   -0.122793    3.368613    0.540609
  12 C     6.0000    0    12.011   -1.516483    8.415553    0.320127
  13 H     1.0000    0     1.008   -5.341320    7.065686    0.305898
  14 C     6.0000    0    12.011    1.715439    5.244307    0.498268
  15 C     6.0000    0    12.011    1.018519    7.764274    0.400038
  16 H     1.0000    0     1.008   -2.069371   10.384589    0.236792
  17 H     1.0000    0     1.008    3.688672    4.712147    0.563972
  18 H     1.0000    0     1.008    2.460304    9.215321    0.377106
  19 C     6.0000    0    12.011    0.487151    0.713916    0.590029
  20 C     6.0000    0    12.011   -0.574556   -1.364792    0.949665
  21 H     1.0000    0     1.008   -0.974235   -3.330106    1.181697
  22 Au   19.0000*   0   196.966    4.040603   -0.928984   -0.264713
  23 Cl   17.0000    0    35.453    2.682421   -1.972577   -4.234035
  24 Cl   17.0000    0    35.453    8.056558   -2.153923   -1.230697
  25 Cl   17.0000    0    35.453    5.254255    0.183398    3.740696
  26 O     8.0000    0    15.999   -6.253907   -3.534737    4.082840
  27 O     8.0000    0    15.999   -9.818960    0.048672   -3.487512
  28 C     6.0000    0    12.011   -8.020071   -5.532812    4.140299
  29 H     1.0000    0     1.008   -7.857808   -6.732969    2.464783
  30 H     1.0000    0     1.008   -7.568990   -6.640692    5.810934
  31 H     1.0000    0     1.008   -9.954238   -4.820508    4.295731
  32 C     6.0000    0    12.011  -11.610379   -1.909823   -3.739791
  33 H     1.0000    0     1.008  -12.693941   -1.472286   -5.429862
  34 H     1.0000    0     1.008  -10.689686   -3.745016   -3.979189
  35 H     1.0000    0     1.008  -12.885935   -1.980017   -2.114307
* core charge reduced due to ECP

--------------------------------
INTERNAL COORDINATES (ANGSTROEM)
--------------------------------
 C      0   0   0     0.000000000000     0.00000000     0.00000000
 C      1   0   0     1.403495418699     0.00000000     0.00000000
 C      2   1   0     1.399223096366   119.53276541     0.00000000
 C      3   2   1     1.390305221232   120.76777659     0.56713879
 C      4   3   2     1.394662628194   118.80014319   358.93459087
 C      1   2   3     1.380271177981   120.01607272     0.04553466
 H      2   1   3     1.082382409089   121.25436088   191.05034674
 H      4   3   2     1.078407863612   120.63163333   179.44066236
 H      6   1   2     1.081619720596   121.28402772   182.47566261
 C      1   2   3     1.475694461829   119.69375609   183.30369211
 C     10   1   2     1.388415459247   121.11384380   230.91568236
 C     10   1   2     1.410807538131   120.44503768    52.96440711
 C     11  10   1     1.387459362110   120.92255539   181.32770406
 H     11  10   1     1.083374079602   118.95894645     2.27522628
 C     12  10   1     1.389945942100   120.39002405   178.37843777
 C     15  12  10     1.384542268000   120.13101964     0.26294049
 H     13  11  10     1.083164269415   119.63149452   180.44392688
 H     15  12  10     1.082055517018   119.27423663   179.58505439
 H     16  15  12     1.082527475469   119.72681922   179.69168713
 C     12  10   1     1.441644962171   116.94507399   359.86318017
 C     20  12  10     1.249753315381   139.44639220   346.60866294
 H     21  20  12     1.068366507711   164.43034754   181.85624842
 Au    20  12  10     2.120457813577   126.45525862   162.73040331
 Cl    23  20  12     2.287690510341    90.92954707   260.07627184
 Cl    23  20  12     2.279857265825   172.31347705     4.99329977
 Cl    23  20  12     2.291627124735    86.89985098    80.05931556
 O      3   2   1     1.344862805893   115.39103503   180.65748207
 O      5   4   3     1.341503393685   123.49012071   180.08533394
 C     27   3   2     1.411519490028   118.67273687   178.48125308
 H     29  27   3     1.094010628466   111.43387399    62.42051528
 H     29  27   3     1.087313623051   106.02436184   181.11673557
 H     29  27   3     1.093815464562   111.28839058   299.83453901
 C     28   5   4     1.410883001303   118.87688996   359.19689575
 H     33  28   5     1.087312275958   106.00599203   180.72169578
 H     33  28   5     1.093864344478   111.33665789   299.35132433
 H     33  28   5     1.094024090051   111.41366289    62.05808211

---------------------------
INTERNAL COORDINATES (A.U.)
---------------------------
 C      0   0   0     0.000000000000     0.00000000     0.00000000
 C      1   0   0     2.652221971555     0.00000000     0.00000000
 C      2   1   0     2.644148452388   119.53276541     0.00000000
 C      3   2   1     2.627296110690   120.76777659     0.56713879
 C      4   3   2     2.635530416502   118.80014319   358.93459087
 C      1   2   3     2.608334516929   120.01607272     0.04553466
 H      2   1   3     2.045406325353   121.25436088   191.05034674
 H      4   3   2     2.037895522894   120.63163333   179.44066236
 H      6   1   2     2.043965052975   121.28402772   182.47566261
 C      1   2   3     2.788658390202   119.69375609   183.30369211
 C     10   1   2     2.623724978079   121.11384380   230.91568236
 C     10   1   2     2.666039874738   120.44503768    52.96440711
 C     11  10   1     2.621918216334   120.92255539   181.32770406
 H     11  10   1     2.047280311037   118.95894645     2.27522628
 C     12  10   1     2.626617171525   120.39002405   178.37843777
 C     15  12  10     2.616405707358   120.13101964     0.26294049
 H     13  11  10     2.046883827244   119.63149452   180.44392688
 H     15  12  10     2.044788588863   119.27423663   179.58505439
 H     16  15  12     2.045680461082   119.72681922   179.69168713
 C     12  10   1     2.724314160850   116.94507399   359.86318017
 C     20  12  10     2.361691501031   139.44639220   346.60866294
 H     21  20  12     2.018920110227   164.43034754   181.85624842
 Au    20  12  10     4.007084546195   126.45525862   162.73040331
 Cl    23  20  12     4.323108543714    90.92954707   260.07627184
 Cl    23  20  12     4.308305856839   172.31347705     4.99329977
 Cl    23  20  12     4.330547666814    86.89985098    80.05931556
 O      3   2   1     2.541422390834   115.39103503   180.65748207
 O      5   4   3     2.535074021791   123.49012071   180.08533394
 C     27   3   2     2.667385268845   118.67273687   178.48125308
 H     29  27   3     2.067380475400   111.43387399    62.42051528
 H     29  27   3     2.054724969249   106.02436184   181.11673557
 H     29  27   3     2.067011669070   111.28839058   299.83453901
 C     28   5   4     2.666182479467   118.87688996   359.19689575
 H     33  28   5     2.054722423612   106.00599203   180.72169578
 H     33  28   5     2.067104038724   111.33665789   299.35132433
 H     33  28   5     2.067405914108   111.41366289    62.05808211

---------------------
BASIS SET INFORMATION
---------------------
There are 5 groups of distinct atoms

 Group   1 Type C   : 12s6p3d1f contracted to 6s3p3d1f pattern {621111/411/111/1}
 Group   2 Type H   : 5s3p1d contracted to 3s3p1d pattern {311/111/1}
 Group   3 Type Au  : 8s8p6d2f1g contracted to 6s5p3d2f1g pattern {311111/41111/411/11/1}
 Group   4 Type Cl  : 15s10p4d1f contracted to 6s6p4d1f pattern {732111/511111/1111/1}
 Group   5 Type O   : 12s7p3d1f contracted to 6s4p3d1f pattern {621111/4111/111/1}

Atom   0C    basis set group =>   1
Atom   1C    basis set group =>   1
Atom   2C    basis set group =>   1
Atom   3C    basis set group =>   1
Atom   4C    basis set group =>   1
Atom   5C    basis set group =>   1
Atom   6H    basis set group =>   2
Atom   7H    basis set group =>   2
Atom   8H    basis set group =>   2
Atom   9C    basis set group =>   1
Atom  10C    basis set group =>   1
Atom  11C    basis set group =>   1
Atom  12C    basis set group =>   1
Atom  13H    basis set group =>   2
Atom  14C    basis set group =>   1
Atom  15C    basis set group =>   1
Atom  16H    basis set group =>   2
Atom  17H    basis set group =>   2
Atom  18H    basis set group =>   2
Atom  19C    basis set group =>   1
Atom  20C    basis set group =>   1
Atom  21H    basis set group =>   2
Atom  22Au   basis set group =>   3
Atom  23Cl   basis set group =>   4
Atom  24Cl   basis set group =>   4
Atom  25Cl   basis set group =>   4
Atom  26O    basis set group =>   5
Atom  27O    basis set group =>   5
Atom  28C    basis set group =>   1
Atom  29H    basis set group =>   2
Atom  30H    basis set group =>   2
Atom  31H    basis set group =>   2
Atom  32C    basis set group =>   1
Atom  33H    basis set group =>   2
Atom  34H    basis set group =>   2
Atom  35H    basis set group =>   2
----------------------------------
AUXILIARY/JK BASIS SET INFORMATION
----------------------------------
There are 5 groups of distinct atoms

 Group   1 Type C   : 14s10p6d2f1g contracted to 10s8p5d1f1g pattern {5111111111/31111111/21111/2/1}
 Group   2 Type H   : 4s2p2d contracted to 2s2p2d pattern {31/11/11}
 Group   3 Type Au  : 13s12p11d9f5g3h2i contracted to 13s11p10d8f4g3h2i pattern {1111111111111/21111111111/2111111111/21111111/2111/111/11}
 Group   4 Type Cl  : 16s12p10d4f1g contracted to 13s11p9d4f1g pattern {4111111111111/21111111111/211111111/1111/1}
 Group   5 Type O   : 14s10p6d2f1g contracted to 10s8p4d2f1g pattern {5111111111/31111111/3111/11/1}

Atom   0C    basis set group =>   1
Atom   1C    basis set group =>   1
Atom   2C    basis set group =>   1
Atom   3C    basis set group =>   1
Atom   4C    basis set group =>   1
Atom   5C    basis set group =>   1
Atom   6H    basis set group =>   2
Atom   7H    basis set group =>   2
Atom   8H    basis set group =>   2
Atom   9C    basis set group =>   1
Atom  10C    basis set group =>   1
Atom  11C    basis set group =>   1
Atom  12C    basis set group =>   1
Atom  13H    basis set group =>   2
Atom  14C    basis set group =>   1
Atom  15C    basis set group =>   1
Atom  16H    basis set group =>   2
Atom  17H    basis set group =>   2
Atom  18H    basis set group =>   2
Atom  19C    basis set group =>   1
Atom  20C    basis set group =>   1
Atom  21H    basis set group =>   2
Atom  22Au   basis set group =>   3
Atom  23Cl   basis set group =>   4
Atom  24Cl   basis set group =>   4
Atom  25Cl   basis set group =>   4
Atom  26O    basis set group =>   5
Atom  27O    basis set group =>   5
Atom  28C    basis set group =>   1
Atom  29H    basis set group =>   2
Atom  30H    basis set group =>   2
Atom  31H    basis set group =>   2
Atom  32C    basis set group =>   1
Atom  33H    basis set group =>   2
Atom  34H    basis set group =>   2
Atom  35H    basis set group =>   2
-------------------------
ECP PARAMETER INFORMATION
-------------------------

 Group 1, Type Au ECP Def2-ECP (replacing 60 core electrons, lmax=3)

Atom  22Au   ECP group =>   1



           ************************************************************
           *        Program running with 24 parallel MPI-processes    *
           *              working on a common directory               *
           ************************************************************
------------------------------------------------------------------------------
                           ORCA GTO INTEGRAL CALCULATION
------------------------------------------------------------------------------

                         BASIS SET STATISTICS AND STARTUP INFO

 # of primitive gaussian shells          ...  639
 # of primitive gaussian functions       ... 1509
 # of contracted shells                  ...  402
 # of contracted basis functions         ... 1122
 Highest angular momentum                ...    4
 Maximum contraction depth               ...    7
 Integral package used                   ... LIBINT
 Integral threshhold            Thresh   ...  1.000e-10
 Primitive cut-off              TCut     ...  1.000e-11


------------------------------ INTEGRAL EVALUATION ----------------------------


 * One electron integrals 

   ECP integrals                         ... done
 Pre-screening matrix                    ... done
 Shell pair data                         ... done (   0.018 sec)



           ************************************************************
           *        Program running with 24 parallel MPI-processes    *
           *              working on a common directory               *
           ************************************************************
-------------------------------------------------------------------------------
                                 ORCA SCF
-------------------------------------------------------------------------------

------------
SCF SETTINGS
------------
Hamiltonian:
 Density Functional     Method          .... DFT(GTOs)
 Exchange Functional    Exchange        .... WB97M-V
 Correlation Functional Correlation     .... WB97M-V
 Gradients option       PostSCFGGA      .... off
 Hybrid DFT is turned on
   Fraction HF Exchange ScalHFX         ....  0.150000
   Scaling of DF-GGA-X  ScalDFX         ....  0.000000
   Scaling of DF-GGA-C  ScalDFC         ....  1.000000
   Scaling of DF-LDA-C  ScalLDAC        ....  1.000000
   Perturbative correction              ....  0.000000
   Density functional embedding theory  .... OFF
 Long-range corrected/Screened/Range-Separated Hybrid DFT is turned on
   Amount of maximum screened exact exchange              ....  0.850000
   Range separation parameter mu (erf(mu*r12)/r12)        ....  0.300000
   NL short-range parameter             ....  6.000000
   NL long-range parameter              ....  0.010000


General Settings:
 Integral files         IntName         .... TMB26_T1
 Hartree-Fock type      HFTyp           .... RHF
 Total Charge           Charge          ....    0
 Multiplicity           Mult            ....    1
 Number of Electrons    NEL             ....  196
 Basis Dimension        Dim             .... 1122
 Nuclear Repulsion      ENuc            ....   2410.1440826510 Eh

Convergence Acceleration:
 DIIS                   CNVDIIS         .... on
   Start iteration      DIISMaxIt       ....    12
   Startup error        DIISStart       ....  0.200000
   # of expansion vecs  DIISMaxEq       ....     5
   Bias factor          DIISBfac        ....   1.050
   Max. coefficient     DIISMaxC        ....  10.000
 Newton-Raphson         CNVNR           .... off
 SOSCF                  CNVSOSCF        .... off
 Level Shifting         CNVShift        .... on
   Level shift para.    LevelShift      ....    0.2500
   Turn off err/grad.   ShiftErr        ....    0.0010
 Zerner damping         CNVZerner       .... off
 Static damping         CNVDamp         .... on
   Fraction old density DampFac         ....    0.7000
   Max. Damping (<1)    DampMax         ....    0.9800
   Min. Damping (>=0)   DampMin         ....    0.0000
   Turn off err/grad.   DampErr         ....    0.1000
 Fernandez-Rico         CNVRico         .... off

SCF Procedure:
 Maximum # iterations   MaxIter         ....   125
 SCF integral mode      SCFMode         .... Direct
   Integral package                     .... LIBINT
 Reset frequency        DirectResetFreq ....    20
 Integral Threshold     Thresh          ....  1.000e-10 Eh
 Primitive CutOff       TCut            ....  1.000e-11 Eh

Convergence Tolerance:
 Convergence Check Mode ConvCheckMode   .... Total+1el-Energy
 Convergence forced     ConvForced      .... 0
 Energy Change          TolE            ....  1.000e-06 Eh
 1-El. energy change                    ....  1.000e-03 Eh
 DIIS Error             TolErr          ....  1.000e-06


Diagonalization of the overlap matrix:
Smallest eigenvalue                        ... 1.773e-07
Time for diagonalization                   ...    0.197 sec
Threshold for overlap eigenvalues          ... 1.000e-08
Number of eigenvalues below threshold      ... 0
Time for construction of square roots      ...    0.148 sec
Total time needed                          ...    0.351 sec

-------------------
DFT GRID GENERATION
-------------------

General Integration Accuracy     IntAcc      ...  4.670
Radial Grid Type                 RadialGrid  ... Gauss-Chebyshev
Angular Grid (max. acc.)         AngularGrid ... Lebedev-302
Angular grid pruning method      GridPruning ... 3 (G Style)
Weight generation scheme         WeightScheme... Becke
Basis function cutoff            BFCut       ...    1.0000e-10
Integration weight cutoff        WCut        ...    1.0000e-14
Grids for H and He will be reduced by one unit

# of grid points (after initial pruning)     ... 191198 (   0.0 sec)
# of grid points (after weights+screening)   ... 168125 (   0.2 sec)
nearest neighbour list constructed           ...    0.0 sec
Grid point re-assignment to atoms done       ...    0.0 sec
Grid point division into batches done        ...    0.6 sec
Reduced shell lists constructed in    0.8 sec

Total number of grid points                  ...   168125
Total number of batches                      ...     2644
Average number of points per batch           ...       63
Average number of grid points per atom       ...     4670
Average number of shells per batch           ...   238.61 (59.36%)
Average number of basis functions per batch  ...   664.21 (59.20%)
Average number of large shells per batch     ...   184.10 (77.16%)
Average number of large basis fcns per batch ...   508.37 (76.54%)
Maximum spatial batch extension              ...   4.34,  2.55,  4.13 au
Average spatial batch extension              ...   0.05,  0.05,  0.05 au

Time for grid setup =    1.014 sec

------------------------------
INITIAL GUESS: MODEL POTENTIAL
------------------------------
Loading Hartree-Fock densities                     ... done
  calling /sw/apps/orca/orca_4_2_0_linux_x86-64_openmpi314/orca TMB26_T1_atom79.inp > TMB26_T1_atom79.out in order to generate an atomic fitting density for atom 22 (Au with ECP) on-the-fly... 
    atom 22 (Au), assumed electronic state with S=2: 1s2 2s2 2p6 3s2 3p6 4s2 3d10 4p6 5s2 4d10 5p6 6s1 4f14 5d10           ... done
Calculating cut-offs                               ... done
Setting up the integral package                    ... done
Initializing the effective Hamiltonian             ... done
Starting the Coulomb interaction                   ... done (   0.2 sec)
Reading the grid                                   ... done
Mapping shells                                     ... done
Starting the XC term evaluation                    ... done (   0.6 sec)
  promolecular density results
     # of electrons  =    255.994112152
     EX              =   -550.326339640
     EC              =    -11.080817088
     EX+EC           =   -561.407156728
Transforming the Hamiltonian                       ... done (   0.1 sec)
Diagonalizing the Hamiltonian                      ... done (   0.2 sec)
Back transforming the eigenvectors                 ... done (   0.1 sec)
Now organizing SCF variables                       ... done
                      ------------------
                      INITIAL GUESS DONE (   3.2 sec)
                      ------------------
--------------
SCF ITERATIONS
--------------
ITER       Energy         Delta-E        Max-DP      RMS-DP      [F,P]     Damp
               ***  Starting incremental Fock matrix formation  ***
  0  -2285.0620425817   0.000000000000 5.87353819  0.01189255  0.5680732 0.7000
  1  -2285.2304473210  -0.168404739348 4.50990648  0.00891495  0.4044337 0.7000
  2  -2285.3254956193  -0.095048298316 3.19654639  0.00619624  0.2861301 0.7000
  3  -2285.3840180136  -0.058522394257 2.15043135  0.00418563  0.2015294 0.7000
                               ***Turning on DIIS***
  4  -2285.4235220603  -0.039504046747 1.46624078  0.00287852  0.1415022 0.7000
  5  -2285.4510266239  -0.027504563523 3.25954657  0.00696315  0.0992442 0.0000
  6  -2285.5159555413  -0.064928917423 0.26414375  0.00075440  0.0036360 0.0000
  7  -2285.5162451774  -0.000289636094 0.21326992  0.00085683  0.0018104 0.0000
  8  -2285.5163710721  -0.000125894746 0.18219299  0.00075596  0.0015932 0.0000
  9  -2285.5164256491  -0.000054576973 0.42554582  0.00123100  0.0006147 0.0000
 10  -2285.5164578591  -0.000032209966 0.30902917  0.00083923  0.0003756 0.0000
 11  -2285.5164614886  -0.000003629538 0.38988675  0.00116062  0.0001507 0.0000
 12  -2285.5164622811  -0.000000792553 0.60372668  0.00201818  0.0000618 0.0000
 13  -2285.5164624395  -0.000000158395 0.18766988  0.00068353  0.0000440 0.0000
                 **** Energy Check signals convergence ****

               *****************************************************
               *                     SUCCESS                       *
               *           SCF CONVERGED AFTER  14 CYCLES          *
               *****************************************************


Setting up the DFT-NL grid :

General Integration Accuracy     IntAcc      ...  4.340
Radial Grid Type                 RadialGrid  ... Gauss-Chebyshev
Angular Grid (max. acc.)         AngularGrid ... Lebedev-110
Angular grid pruning method      GridPruning ... 3 (G Style)
Weight generation scheme         WeightScheme... Becke
Basis function cutoff            BFCut       ...    1.0000e-10
Integration weight cutoff        WCut        ...    1.0000e-14
Grids for H and He will be reduced by one unit

# of grid points (after initial pruning)     ...  50106 (   0.0 sec)
# of grid points (after weights+screening)   ...  44991 (   0.0 sec)
nearest neighbour list constructed           ...    0.0 sec
Grid point re-assignment to atoms done       ...    0.0 sec
Grid point division into batches done        ...    0.0 sec
Reduced shell lists constructed in    0.1 sec

Total number of grid points                  ...    44991
Total number of batches                      ...      720
Average number of points per batch           ...       62
Average number of grid points per atom       ...     1250
Average number of shells per batch           ...   242.68 (60.37%)
Average number of basis functions per batch  ...   679.58 (60.57%)
Average number of large shells per batch     ...   187.81 (77.39%)
Average number of large basis fcns per batch ...   520.06 (76.53%)
Maximum spatial batch extension              ...   5.42,  4.32,  5.30 au
Average spatial batch extension              ...   0.08,  0.08,  0.08 au

Final grid set up in    0.2 sec

-------------------------------------------------------------------------------
                         DFT-NL dispersion correction                          
-------------------------------------------------------------------------------

SC Energy -2285.516462393 
NL    Energy 0.735310646 
SC+NL Energy -2284.781151747 
NL done in    0.8 sec
-------------------------------------------------------------------------------

----------------
TOTAL SCF ENERGY
----------------

Total Energy       :        -2284.78115175 Eh          -62172.05591 eV

Components:
Nuclear Repulsion  :         2410.14408265 Eh           65583.35468 eV
Electronic Energy  :        -4694.92523440 Eh         -127755.41059 eV
One Electron Energy:        -7984.58194295 Eh         -217271.52054 eV
Two Electron Energy:         3289.65670856 Eh           89516.10995 eV

Virial components:
Potential Energy   :        -4475.23324046 Eh         -121777.28751 eV
Kinetic Energy     :         2190.45208871 Eh           59605.23161 eV
Virial Ratio       :            2.04306374


DFT components:
N(Alpha)           :       97.999834813966 electrons
N(Beta)            :       97.999834813966 electrons
N(Total)           :      195.999669627932 electrons
E(X)               :     -144.264328763482 Eh       
E(C)               :       -7.013213352073 Eh       
NL Energy, E(C,NL) :        0.735310646164 Eh       
E(XC)              :     -150.542231469391 Eh       
DFET-embed. en.    :        0.000000000000 Eh       

---------------
SCF CONVERGENCE
---------------

  Last Energy change         ...    4.6809e-08  Tolerance :   1.0000e-06
  Last MAX-Density change    ...    2.0988e-01  Tolerance :   1.0000e-05
  Last RMS-Density change    ...    7.9957e-04  Tolerance :   1.0000e-06
  Last DIIS Error            ...    3.3042e-05  Tolerance :   1.0000e-06

             **** THE GBW FILE WAS UPDATED (TMB26_T1.gbw) ****
             **** DENSITY FILE WAS UPDATED (TMB26_T1.scfp) ****
             **** ENERGY FILE WAS UPDATED (TMB26_T1.en.tmp) ****
             **** THE GBW FILE WAS UPDATED (TMB26_T1.gbw) ****
             **** DENSITY FILE WAS UPDATED (TMB26_T1.scfp) ****
----------------
ORBITAL ENERGIES
----------------

  NO   OCC          E(Eh)            E(eV) 
   0   2.0000    -101.838603     -2771.1693 
   1   2.0000    -101.838158     -2771.1572 
   2   2.0000    -101.831615     -2770.9791 
   3   2.0000     -19.402405      -527.9663 
   4   2.0000     -19.399110      -527.8766 
   5   2.0000     -10.451309      -284.3946 
   6   2.0000     -10.450221      -284.3650 
   7   2.0000     -10.444356      -284.2054 
   8   2.0000     -10.426790      -283.7274 
   9   2.0000     -10.424282      -283.6591 
  10   2.0000     -10.422978      -283.6236 
  11   2.0000     -10.404249      -283.1140 
  12   2.0000     -10.398847      -282.9670 
  13   2.0000     -10.395744      -282.8826 
  14   2.0000     -10.378638      -282.4171 
  15   2.0000     -10.377856      -282.3958 
  16   2.0000     -10.377041      -282.3736 
  17   2.0000     -10.376582      -282.3612 
  18   2.0000     -10.373596      -282.2799 
  19   2.0000     -10.373215      -282.2695 
  20   2.0000     -10.366325      -282.0820 
  21   2.0000      -9.610687      -261.5201 
  22   2.0000      -9.610192      -261.5066 
  23   2.0000      -9.603526      -261.3252 
  24   2.0000      -7.314219      -199.0300 
  25   2.0000      -7.313789      -199.0183 
  26   2.0000      -7.307881      -198.8576 
  27   2.0000      -7.307429      -198.8452 
  28   2.0000      -7.307398      -198.8444 
  29   2.0000      -7.307346      -198.8430 
  30   2.0000      -7.306777      -198.8275 
  31   2.0000      -7.300615      -198.6598 
  32   2.0000      -7.299900      -198.6404 
  33   2.0000      -4.406091      -119.8958 
  34   2.0000      -2.581267       -70.2398 
  35   2.0000      -2.579376       -70.1884 
  36   2.0000      -2.556972       -69.5787 
  37   2.0000      -1.241994       -33.7964 
  38   2.0000      -1.238969       -33.7140 
  39   2.0000      -1.042970       -28.3806 
  40   2.0000      -1.011690       -27.5295 
  41   2.0000      -0.974367       -26.5139 
  42   2.0000      -0.937443       -25.5091 
  43   2.0000      -0.923837       -25.1389 
  44   2.0000      -0.910994       -24.7894 
  45   2.0000      -0.900389       -24.5008 
  46   2.0000      -0.891411       -24.2565 
  47   2.0000      -0.889039       -24.1920 
  48   2.0000      -0.882967       -24.0268 
  49   2.0000      -0.873825       -23.7780 
  50   2.0000      -0.835060       -22.7231 
  51   2.0000      -0.783825       -21.3290 
  52   2.0000      -0.771147       -20.9840 
  53   2.0000      -0.751858       -20.4591 
  54   2.0000      -0.729888       -19.8613 
  55   2.0000      -0.706757       -19.2318 
  56   2.0000      -0.691952       -18.8290 
  57   2.0000      -0.659351       -17.9418 
  58   2.0000      -0.655881       -17.8474 
  59   2.0000      -0.632683       -17.2162 
  60   2.0000      -0.627964       -17.0878 
  61   2.0000      -0.623549       -16.9676 
  62   2.0000      -0.613328       -16.6895 
  63   2.0000      -0.611502       -16.6398 
  64   2.0000      -0.608181       -16.5494 
  65   2.0000      -0.580494       -15.7960 
  66   2.0000      -0.575002       -15.6466 
  67   2.0000      -0.569539       -15.4979 
  68   2.0000      -0.567140       -15.4327 
  69   2.0000      -0.560437       -15.2503 
  70   2.0000      -0.554116       -15.0783 
  71   2.0000      -0.550748       -14.9866 
  72   2.0000      -0.533482       -14.5168 
  73   2.0000      -0.531305       -14.4576 
  74   2.0000      -0.521759       -14.1978 
  75   2.0000      -0.518551       -14.1105 
  76   2.0000      -0.516824       -14.0635 
  77   2.0000      -0.512556       -13.9473 
  78   2.0000      -0.489733       -13.3263 
  79   2.0000      -0.485749       -13.2179 
  80   2.0000      -0.481220       -13.0946 
  81   2.0000      -0.473066       -12.8728 
  82   2.0000      -0.467975       -12.7342 
  83   2.0000      -0.463253       -12.6058 
  84   2.0000      -0.457343       -12.4449 
  85   2.0000      -0.443423       -12.0661 
  86   2.0000      -0.431451       -11.7404 
  87   2.0000      -0.413747       -11.2586 
  88   2.0000      -0.406093       -11.0504 
  89   2.0000      -0.386505       -10.5173 
  90   2.0000      -0.381776       -10.3886 
  91   2.0000      -0.375289       -10.2121 
  92   2.0000      -0.371525       -10.1097 
  93   2.0000      -0.369818       -10.0633 
  94   2.0000      -0.362579        -9.8663 
  95   2.0000      -0.357901        -9.7390 
  96   2.0000      -0.346791        -9.4367 
  97   2.0000      -0.328421        -8.9368 
  98   0.0000      -0.070691        -1.9236 
  99   0.0000      -0.011926        -0.3245 
 100   0.0000       0.007358         0.2002 
 101   0.0000       0.009900         0.2694 
 102   0.0000       0.023821         0.6482 
 103   0.0000       0.027044         0.7359 
 104   0.0000       0.029718         0.8087 
 105   0.0000       0.036792         1.0012 
 106   0.0000       0.041026         1.1164 
 107   0.0000       0.045768         1.2454 
 108   0.0000       0.047158         1.2832 
 109   0.0000       0.052959         1.4411 
 110   0.0000       0.055442         1.5087 
 111   0.0000       0.058620         1.5951 
 112   0.0000       0.062217         1.6930 
 113   0.0000       0.064582         1.7574 
 114   0.0000       0.067388         1.8337 
 115   0.0000       0.073745         2.0067 
 116   0.0000       0.076823         2.0905 
 117   0.0000       0.080997         2.2040 
 118   0.0000       0.084967         2.3121 
 119   0.0000       0.089623         2.4388 
 120   0.0000       0.092693         2.5223 
 121   0.0000       0.095458         2.5975 
 122   0.0000       0.095650         2.6028 
 123   0.0000       0.100746         2.7414 
 124   0.0000       0.107407         2.9227 
 125   0.0000       0.110574         3.0089 
 126   0.0000       0.113101         3.0776 
 127   0.0000       0.113774         3.0960 
 128   0.0000       0.116099         3.1592 
 129   0.0000       0.123468         3.3597 
 130   0.0000       0.128966         3.5093 
 131   0.0000       0.131495         3.5782 
 132   0.0000       0.133832         3.6418 
 133   0.0000       0.135771         3.6945 
 134   0.0000       0.139481         3.7955 
 135   0.0000       0.143425         3.9028 
 136   0.0000       0.146298         3.9810 
 137   0.0000       0.153191         4.1686 
 138   0.0000       0.157391         4.2828 
 139   0.0000       0.161650         4.3987 
 140   0.0000       0.164720         4.4823 
 141   0.0000       0.167438         4.5562 
 142   0.0000       0.171343         4.6625 
 143   0.0000       0.177699         4.8354 
 144   0.0000       0.179604         4.8873 
 145   0.0000       0.181672         4.9435 
 146   0.0000       0.185929         5.0594 
 147   0.0000       0.187301         5.0967 
 148   0.0000       0.191716         5.2169 
 149   0.0000       0.193476         5.2647 
 150   0.0000       0.197158         5.3649 
 151   0.0000       0.204012         5.5515 
 152   0.0000       0.208248         5.6667 
 153   0.0000       0.210248         5.7211 
 154   0.0000       0.210341         5.7237 
 155   0.0000       0.212922         5.7939 
 156   0.0000       0.218577         5.9478 
 157   0.0000       0.225638         6.1399 
 158   0.0000       0.226252         6.1566 
 159   0.0000       0.229234         6.2378 
 160   0.0000       0.230537         6.2732 
 161   0.0000       0.235661         6.4127 
 162   0.0000       0.238905         6.5009 
 163   0.0000       0.240687         6.5494 
 164   0.0000       0.245937         6.6923 
 165   0.0000       0.247406         6.7323 
 166   0.0000       0.248768         6.7693 
 167   0.0000       0.250310         6.8113 
 168   0.0000       0.255571         6.9544 
 169   0.0000       0.257400         7.0042 
 170   0.0000       0.262655         7.1472 
 171   0.0000       0.264496         7.1973 
 172   0.0000       0.265528         7.2254 
 173   0.0000       0.269454         7.3322 
 174   0.0000       0.269817         7.3421 
 175   0.0000       0.273171         7.4334 
 176   0.0000       0.276259         7.5174 
 177   0.0000       0.278351         7.5743 
 178   0.0000       0.280865         7.6427 
 179   0.0000       0.283455         7.7132 
 180   0.0000       0.285363         7.7651 
 181   0.0000       0.288420         7.8483 
 182   0.0000       0.289035         7.8650 
 183   0.0000       0.292747         7.9660 
 184   0.0000       0.293841         7.9958 
 185   0.0000       0.297757         8.1024 
 186   0.0000       0.298746         8.1293 
 187   0.0000       0.299308         8.1446 
 188   0.0000       0.302817         8.2401 
 189   0.0000       0.304914         8.2971 
 190   0.0000       0.308151         8.3852 
 191   0.0000       0.310972         8.4620 
 192   0.0000       0.312915         8.5149 
 193   0.0000       0.316999         8.6260 
 194   0.0000       0.317791         8.6475 
 195   0.0000       0.319440         8.6924 
 196   0.0000       0.323687         8.8080 
 197   0.0000       0.325105         8.8466 
 198   0.0000       0.326107         8.8738 
 199   0.0000       0.327859         8.9215 
 200   0.0000       0.329933         8.9779 
 201   0.0000       0.331497         9.0205 
 202   0.0000       0.334441         9.1006 
 203   0.0000       0.335888         9.1400 
 204   0.0000       0.337384         9.1807 
 205   0.0000       0.338621         9.2144 
 206   0.0000       0.340621         9.2688 
 207   0.0000       0.343899         9.3580 
 208   0.0000       0.345994         9.4150 
 209   0.0000       0.349634         9.5140 
 210   0.0000       0.352321         9.5871 
 211   0.0000       0.352644         9.5959 
 212   0.0000       0.355098         9.6627 
 213   0.0000       0.357948         9.7403 
 214   0.0000       0.360902         9.8206 
 215   0.0000       0.361846         9.8463 
 216   0.0000       0.366340         9.9686 
 217   0.0000       0.367343         9.9959 
 218   0.0000       0.367965        10.0128 
 219   0.0000       0.373625        10.1668 
 220   0.0000       0.373738        10.1699 
 221   0.0000       0.374541        10.1918 
 222   0.0000       0.376946        10.2572 
 223   0.0000       0.377023        10.2593 
 224   0.0000       0.381913        10.3924 
 225   0.0000       0.384315        10.4578 
 226   0.0000       0.386174        10.5083 
 227   0.0000       0.388836        10.5808 
 228   0.0000       0.390559        10.6276 
 229   0.0000       0.393305        10.7024 
 230   0.0000       0.396256        10.7827 
 231   0.0000       0.396698        10.7947 
 232   0.0000       0.399410        10.8685 
 233   0.0000       0.402110        10.9420 
 234   0.0000       0.405452        11.0329 
 235   0.0000       0.406934        11.0732 
 236   0.0000       0.409327        11.1384 
 237   0.0000       0.411204        11.1894 
 238   0.0000       0.413581        11.2541 
 239   0.0000       0.415276        11.3002 
 240   0.0000       0.421709        11.4753 
 241   0.0000       0.422938        11.5087 
 242   0.0000       0.426665        11.6101 
 243   0.0000       0.428560        11.6617 
 244   0.0000       0.435665        11.8551 
 245   0.0000       0.436422        11.8756 
 246   0.0000       0.440339        11.9822 
 247   0.0000       0.444313        12.0904 
 248   0.0000       0.444912        12.1067 
 249   0.0000       0.447997        12.1906 
 250   0.0000       0.450952        12.2710 
 251   0.0000       0.455584        12.3971 
 252   0.0000       0.458600        12.4791 
 253   0.0000       0.459608        12.5066 
 254   0.0000       0.465127        12.6568 
 255   0.0000       0.466642        12.6980 
 256   0.0000       0.469231        12.7684 
 257   0.0000       0.473794        12.8926 
 258   0.0000       0.474183        12.9032 
 259   0.0000       0.480587        13.0774 
 260   0.0000       0.482477        13.1289 
 261   0.0000       0.485624        13.2145 
 262   0.0000       0.490761        13.3543 
 263   0.0000       0.493743        13.4354 
 264   0.0000       0.496770        13.5178 
 265   0.0000       0.498125        13.5547 
 266   0.0000       0.500416        13.6170 
 267   0.0000       0.504452        13.7268 
 268   0.0000       0.508066        13.8252 
 269   0.0000       0.514051        13.9880 
 270   0.0000       0.517203        14.0738 
 271   0.0000       0.519168        14.1273 
 272   0.0000       0.521625        14.1941 
 273   0.0000       0.524144        14.2627 
 274   0.0000       0.525066        14.2878 
 275   0.0000       0.530611        14.4387 
 276   0.0000       0.534118        14.5341 
 277   0.0000       0.536853        14.6085 
 278   0.0000       0.538476        14.6527 
 279   0.0000       0.542266        14.7558 
 280   0.0000       0.544266        14.8102 
 281   0.0000       0.550897        14.9907 
 282   0.0000       0.553052        15.0493 
 283   0.0000       0.557701        15.1758 
 284   0.0000       0.559228        15.2174 
 285   0.0000       0.564455        15.3596 
 286   0.0000       0.568702        15.4752 
 287   0.0000       0.570607        15.5270 
 288   0.0000       0.573904        15.6167 
 289   0.0000       0.580423        15.7941 
 290   0.0000       0.582103        15.8398 
 291   0.0000       0.586156        15.9501 
 292   0.0000       0.587776        15.9942 
 293   0.0000       0.589549        16.0424 
 294   0.0000       0.597762        16.2659 
 295   0.0000       0.598346        16.2818 
 296   0.0000       0.602139        16.3850 
 297   0.0000       0.606600        16.5064 
 298   0.0000       0.608648        16.5621 
 299   0.0000       0.610839        16.6218 
 300   0.0000       0.614266        16.7150 
 301   0.0000       0.615875        16.7588 
 302   0.0000       0.617314        16.7980 
 303   0.0000       0.622935        16.9509 
 304   0.0000       0.626431        17.0460 
 305   0.0000       0.631542        17.1851 
 306   0.0000       0.636387        17.3170 
 307   0.0000       0.638421        17.3723 
 308   0.0000       0.640331        17.4243 
 309   0.0000       0.643842        17.5198 
 310   0.0000       0.645828        17.5739 
 311   0.0000       0.651891        17.7389 
 312   0.0000       0.655214        17.8293 
 313   0.0000       0.660129        17.9630 
 314   0.0000       0.661670        18.0050 
 315   0.0000       0.665478        18.1086 
 316   0.0000       0.668092        18.1797 
 317   0.0000       0.668543        18.1920 
 318   0.0000       0.671544        18.2736 
 319   0.0000       0.676895        18.4192 
 320   0.0000       0.677480        18.4352 
 321   0.0000       0.680579        18.5195 
 322   0.0000       0.683872        18.6091 
 323   0.0000       0.685378        18.6501 
 324   0.0000       0.686929        18.6923 
 325   0.0000       0.690685        18.7945 
 326   0.0000       0.692713        18.8497 
 327   0.0000       0.698973        19.0200 
 328   0.0000       0.699145        19.0247 
 329   0.0000       0.700128        19.0515 
 330   0.0000       0.702795        19.1240 
 331   0.0000       0.705803        19.2059 
 332   0.0000       0.706322        19.2200 
 333   0.0000       0.709324        19.3017 
 334   0.0000       0.710229        19.3263 
 335   0.0000       0.712048        19.3758 
 336   0.0000       0.714359        19.4387 
 337   0.0000       0.718708        19.5570 
 338   0.0000       0.722552        19.6616 
 339   0.0000       0.723890        19.6981 
 340   0.0000       0.725088        19.7307 
 341   0.0000       0.728175        19.8147 
 342   0.0000       0.730172        19.8690 
 343   0.0000       0.733098        19.9486 
 344   0.0000       0.734715        19.9926 
 345   0.0000       0.735579        20.0161 
 346   0.0000       0.740190        20.1416 
 347   0.0000       0.741879        20.1875 
 348   0.0000       0.742246        20.1975 
 349   0.0000       0.744542        20.2600 
 350   0.0000       0.748486        20.3673 
 351   0.0000       0.750150        20.4126 
 352   0.0000       0.753259        20.4972 
 353   0.0000       0.756110        20.5748 
 354   0.0000       0.757145        20.6030 
 355   0.0000       0.760573        20.6962 
 356   0.0000       0.761897        20.7323 
 357   0.0000       0.763873        20.7860 
 358   0.0000       0.767352        20.8807 
 359   0.0000       0.771979        21.0066 
 360   0.0000       0.774650        21.0793 
 361   0.0000       0.776949        21.1418 
 362   0.0000       0.779441        21.2097 
 363   0.0000       0.779758        21.2183 
 364   0.0000       0.786858        21.4115 
 365   0.0000       0.789603        21.4862 
 366   0.0000       0.791120        21.5275 
 367   0.0000       0.795426        21.6446 
 368   0.0000       0.797840        21.7103 
 369   0.0000       0.800169        21.7737 
 370   0.0000       0.803541        21.8655 
 371   0.0000       0.806281        21.9400 
 372   0.0000       0.808355        21.9964 
 373   0.0000       0.812977        22.1222 
 374   0.0000       0.814759        22.1707 
 375   0.0000       0.818437        22.2708 
 376   0.0000       0.822249        22.3745 
 377   0.0000       0.829468        22.5710 
 378   0.0000       0.830177        22.5903 
 379   0.0000       0.834060        22.6959 
 380   0.0000       0.837635        22.7932 
 381   0.0000       0.840270        22.8649 
 382   0.0000       0.841878        22.9087 
 383   0.0000       0.844905        22.9910 
 384   0.0000       0.849816        23.1247 
 385   0.0000       0.858757        23.3680 
 386   0.0000       0.859856        23.3979 
 387   0.0000       0.862209        23.4619 
 388   0.0000       0.865133        23.5415 
 389   0.0000       0.866617        23.5819 
 390   0.0000       0.869394        23.6574 
 391   0.0000       0.873475        23.7685 
 392   0.0000       0.876942        23.8628 
 393   0.0000       0.877772        23.8854 
 394   0.0000       0.881743        23.9934 
 395   0.0000       0.889195        24.1962 
 396   0.0000       0.893093        24.3023 
 397   0.0000       0.895854        24.3774 
 398   0.0000       0.898304        24.4441 
 399   0.0000       0.899660        24.4810 
 400   0.0000       0.905688        24.6450 
 401   0.0000       0.910889        24.7865 
 402   0.0000       0.912577        24.8325 
 403   0.0000       0.917372        24.9630 
 404   0.0000       0.919659        25.0252 
 405   0.0000       0.930989        25.3335 
 406   0.0000       0.931854        25.3570 
 407   0.0000       0.935040        25.4437 
 408   0.0000       0.937783        25.5184 
 409   0.0000       0.944494        25.7010 
 410   0.0000       0.949821        25.8459 
 411   0.0000       0.951904        25.9026 
 412   0.0000       0.954412        25.9709 
 413   0.0000       0.961745        26.1704 
 414   0.0000       0.965534        26.2735 
 415   0.0000       0.970131        26.3986 
 416   0.0000       0.975970        26.5575 
 417   0.0000       0.978324        26.6216 
 418   0.0000       0.980822        26.6895 
 419   0.0000       0.986505        26.8442 
 420   0.0000       0.987155        26.8619 
 421   0.0000       0.991946        26.9922 
 422   0.0000       0.994135        27.0518 
 423   0.0000       1.001808        27.2606 
 424   0.0000       1.007408        27.4130 
 425   0.0000       1.015687        27.6383 
 426   0.0000       1.021251        27.7896 
 427   0.0000       1.027654        27.9639 
 428   0.0000       1.034175        28.1413 
 429   0.0000       1.036455        28.2034 
 430   0.0000       1.040300        28.3080 
 431   0.0000       1.048235        28.5239 
 432   0.0000       1.052443        28.6384 
 433   0.0000       1.059544        28.8317 
 434   0.0000       1.062294        28.9065 
 435   0.0000       1.062709        28.9178 
 436   0.0000       1.064466        28.9656 
 437   0.0000       1.072967        29.1969 
 438   0.0000       1.077405        29.3177 
 439   0.0000       1.083943        29.4956 
 440   0.0000       1.087169        29.5834 
 441   0.0000       1.094819        29.7915 
 442   0.0000       1.098646        29.8957 
 443   0.0000       1.100552        29.9475 
 444   0.0000       1.111157        30.2361 
 445   0.0000       1.123479        30.5714 
 446   0.0000       1.128053        30.6959 
 447   0.0000       1.132938        30.8288 
 448   0.0000       1.136898        30.9366 
 449   0.0000       1.142308        31.0838 
 450   0.0000       1.145914        31.1819 
 451   0.0000       1.149475        31.2788 
 452   0.0000       1.152259        31.3546 
 453   0.0000       1.153816        31.3969 
 454   0.0000       1.163602        31.6632 
 455   0.0000       1.170547        31.8522 
 456   0.0000       1.171740        31.8847 
 457   0.0000       1.174702        31.9653 
 458   0.0000       1.178044        32.0562 
 459   0.0000       1.193344        32.4725 
 460   0.0000       1.194652        32.5081 
 461   0.0000       1.200070        32.6556 
 462   0.0000       1.200762        32.6744 
 463   0.0000       1.210500        32.9394 
 464   0.0000       1.215544        33.0766 
 465   0.0000       1.216652        33.1068 
 466   0.0000       1.221421        33.2365 
 467   0.0000       1.232935        33.5499 
 468   0.0000       1.238104        33.6905 
 469   0.0000       1.242121        33.7998 
 470   0.0000       1.245390        33.8888 
 471   0.0000       1.248525        33.9741 
 472   0.0000       1.260328        34.2953 
 473   0.0000       1.262720        34.3604 
 474   0.0000       1.266999        34.4768 
 475   0.0000       1.271849        34.6088 
 476   0.0000       1.274915        34.6922 
 477   0.0000       1.281761        34.8785 
 478   0.0000       1.283023        34.9128 
 479   0.0000       1.294309        35.2199 
 480   0.0000       1.296816        35.2881 
 481   0.0000       1.301290        35.4099 
 482   0.0000       1.307788        35.5867 
 483   0.0000       1.321837        35.9690 
 484   0.0000       1.326918        36.1073 
 485   0.0000       1.334082        36.3022 
 486   0.0000       1.337064        36.3833 
 487   0.0000       1.340033        36.4642 
 488   0.0000       1.349720        36.7277 
 489   0.0000       1.354197        36.8496 
 490   0.0000       1.356097        36.9013 
 491   0.0000       1.361750        37.0551 
 492   0.0000       1.369423        37.2639 
 493   0.0000       1.374026        37.3891 
 494   0.0000       1.384417        37.6719 
 495   0.0000       1.388616        37.7862 
 496   0.0000       1.394005        37.9328 
 497   0.0000       1.398849        38.0646 
 498   0.0000       1.407192        38.2916 
 499   0.0000       1.410339        38.3773 
 500   0.0000       1.418697        38.6047 
 501   0.0000       1.421431        38.6791 
 502   0.0000       1.423202        38.7273 
 503   0.0000       1.430083        38.9145 
 504   0.0000       1.444198        39.2986 
 505   0.0000       1.455705        39.6117 
 506   0.0000       1.457547        39.6619 
 507   0.0000       1.460424        39.7402 
 508   0.0000       1.469443        39.9856 
 509   0.0000       1.475130        40.1403 
 510   0.0000       1.482312        40.3358 
 511   0.0000       1.487257        40.4703 
 512   0.0000       1.489952        40.5437 
 513   0.0000       1.493269        40.6339 
 514   0.0000       1.494864        40.6773 
 515   0.0000       1.501697        40.8632 
 516   0.0000       1.507791        41.0291 
 517   0.0000       1.514768        41.2189 
 518   0.0000       1.523193        41.4482 
 519   0.0000       1.523798        41.4646 
 520   0.0000       1.526741        41.5447 
 521   0.0000       1.542629        41.9771 
 522   0.0000       1.548056        42.1248 
 523   0.0000       1.553615        42.2760 
 524   0.0000       1.555906        42.3384 
 525   0.0000       1.562499        42.5178 
 526   0.0000       1.569888        42.7188 
 527   0.0000       1.578877        42.9634 
 528   0.0000       1.580157        42.9983 
 529   0.0000       1.586557        43.1724 
 530   0.0000       1.593498        43.3613 
 531   0.0000       1.596618        43.4462 
 532   0.0000       1.606600        43.7178 
 533   0.0000       1.610363        43.8202 
 534   0.0000       1.617672        44.0191 
 535   0.0000       1.622704        44.1560 
 536   0.0000       1.627687        44.2916 
 537   0.0000       1.633494        44.4496 
 538   0.0000       1.637056        44.5466 
 539   0.0000       1.639645        44.6170 
 540   0.0000       1.648969        44.8707 
 541   0.0000       1.655431        45.0466 
 542   0.0000       1.661772        45.2191 
 543   0.0000       1.663928        45.2778 
 544   0.0000       1.673538        45.5393 
 545   0.0000       1.679977        45.7145 
 546   0.0000       1.684918        45.8490 
 547   0.0000       1.695122        46.1266 
 548   0.0000       1.698204        46.2105 
 549   0.0000       1.708744        46.4973 
 550   0.0000       1.716272        46.7021 
 551   0.0000       1.719965        46.8026 
 552   0.0000       1.731631        47.1201 
 553   0.0000       1.735708        47.2310 
 554   0.0000       1.741076        47.3771 
 555   0.0000       1.750158        47.6242 
 556   0.0000       1.752625        47.6913 
 557   0.0000       1.763388        47.9842 
 558   0.0000       1.767064        48.0843 
 559   0.0000       1.770602        48.1805 
 560   0.0000       1.781546        48.4783 
 561   0.0000       1.786415        48.6108 
 562   0.0000       1.793097        48.7927 
 563   0.0000       1.806525        49.1581 
 564   0.0000       1.812735        49.3270 
 565   0.0000       1.819541        49.5122 
 566   0.0000       1.825184        49.6658 
 567   0.0000       1.841880        50.1201 
 568   0.0000       1.853725        50.4424 
 569   0.0000       1.854513        50.4639 
 570   0.0000       1.865539        50.7639 
 571   0.0000       1.873953        50.9928 
 572   0.0000       1.879707        51.1494 
 573   0.0000       1.890278        51.4371 
 574   0.0000       1.891204        51.4623 
 575   0.0000       1.897056        51.6215 
 576   0.0000       1.900328        51.7105 
 577   0.0000       1.907015        51.8925 
 578   0.0000       1.917480        52.1773 
 579   0.0000       1.923488        52.3408 
 580   0.0000       1.926518        52.4232 
 581   0.0000       1.933378        52.6099 
 582   0.0000       1.946375        52.9636 
 583   0.0000       1.953081        53.1460 
 584   0.0000       1.966399        53.5084 
 585   0.0000       1.975881        53.7665 
 586   0.0000       1.980892        53.9028 
 587   0.0000       1.984641        54.0048 
 588   0.0000       1.995827        54.3092 
 589   0.0000       1.998094        54.3709 
 590   0.0000       2.011875        54.7459 
 591   0.0000       2.019556        54.9549 
 592   0.0000       2.022831        55.0440 
 593   0.0000       2.029132        55.2155 
 594   0.0000       2.031604        55.2827 
 595   0.0000       2.049362        55.7660 
 596   0.0000       2.059398        56.0391 
 597   0.0000       2.066009        56.2190 
 598   0.0000       2.070608        56.3441 
 599   0.0000       2.075310        56.4721 
 600   0.0000       2.078931        56.5706 
 601   0.0000       2.085797        56.7574 
 602   0.0000       2.088124        56.8208 
 603   0.0000       2.097882        57.0863 
 604   0.0000       2.105314        57.2885 
 605   0.0000       2.110448        57.4282 
 606   0.0000       2.112450        57.4827 
 607   0.0000       2.118819        57.6560 
 608   0.0000       2.122619        57.7594 
 609   0.0000       2.129070        57.9349 
 610   0.0000       2.130623        57.9772 
 611   0.0000       2.136769        58.1444 
 612   0.0000       2.142628        58.3039 
 613   0.0000       2.146021        58.3962 
 614   0.0000       2.155294        58.6485 
 615   0.0000       2.160649        58.7943 
 616   0.0000       2.168685        59.0129 
 617   0.0000       2.170135        59.0524 
 618   0.0000       2.175923        59.2099 
 619   0.0000       2.179904        59.3182 
 620   0.0000       2.182418        59.3866 
 621   0.0000       2.188877        59.5624 
 622   0.0000       2.196777        59.7773 
 623   0.0000       2.212852        60.2148 
 624   0.0000       2.214333        60.2551 
 625   0.0000       2.219558        60.3972 
 626   0.0000       2.226841        60.5954 
 627   0.0000       2.231421        60.7201 
 628   0.0000       2.234418        60.8016 
 629   0.0000       2.236342        60.8540 
 630   0.0000       2.237960        60.8980 
 631   0.0000       2.240724        60.9732 
 632   0.0000       2.249995        61.2255 
 633   0.0000       2.254720        61.3541 
 634   0.0000       2.260249        61.5045 
 635   0.0000       2.261901        61.5495 
 636   0.0000       2.270703        61.7890 
 637   0.0000       2.272812        61.8464 
 638   0.0000       2.282080        62.0986 
 639   0.0000       2.289831        62.3095 
 640   0.0000       2.295311        62.4586 
 641   0.0000       2.305110        62.7252 
 642   0.0000       2.317582        63.0646 
 643   0.0000       2.320346        63.1398 
 644   0.0000       2.328530        63.3625 
 645   0.0000       2.336643        63.5833 
 646   0.0000       2.339308        63.6558 
 647   0.0000       2.347497        63.8786 
 648   0.0000       2.350571        63.9623 
 649   0.0000       2.361048        64.2474 
 650   0.0000       2.362934        64.2987 
 651   0.0000       2.369598        64.4800 
 652   0.0000       2.372172        64.5501 
 653   0.0000       2.378935        64.7341 
 654   0.0000       2.385174        64.9039 
 655   0.0000       2.389852        65.0312 
 656   0.0000       2.397314        65.2342 
 657   0.0000       2.410072        65.5814 
 658   0.0000       2.412991        65.6608 
 659   0.0000       2.415612        65.7321 
 660   0.0000       2.439048        66.3699 
 661   0.0000       2.449163        66.6451 
 662   0.0000       2.455387        66.8145 
 663   0.0000       2.467991        67.1574 
 664   0.0000       2.474088        67.3234 
 665   0.0000       2.490174        67.7611 
 666   0.0000       2.491741        67.8037 
 667   0.0000       2.504650        68.1550 
 668   0.0000       2.511356        68.3375 
 669   0.0000       2.520511        68.5866 
 670   0.0000       2.528828        68.8129 
 671   0.0000       2.533907        68.9511 
 672   0.0000       2.539879        69.1136 
 673   0.0000       2.561892        69.7126 
 674   0.0000       2.567925        69.8768 
 675   0.0000       2.577275        70.1312 
 676   0.0000       2.583015        70.2874 
 677   0.0000       2.587187        70.4009 
 678   0.0000       2.592367        70.5419 
 679   0.0000       2.601756        70.7974 
 680   0.0000       2.611021        71.0495 
 681   0.0000       2.617140        71.2160 
 682   0.0000       2.628176        71.5163 
 683   0.0000       2.633350        71.6571 
 684   0.0000       2.644431        71.9586 
 685   0.0000       2.656571        72.2890 
 686   0.0000       2.662461        72.4492 
 687   0.0000       2.667463        72.5854 
 688   0.0000       2.669541        72.6419 
 689   0.0000       2.686932        73.1151 
 690   0.0000       2.688608        73.1607 
 691   0.0000       2.693448        73.2925 
 692   0.0000       2.711485        73.7833 
 693   0.0000       2.712415        73.8086 
 694   0.0000       2.726552        74.1933 
 695   0.0000       2.732150        74.3456 
 696   0.0000       2.744260        74.6751 
 697   0.0000       2.765161        75.2439 
 698   0.0000       2.771467        75.4154 
 699   0.0000       2.772817        75.4522 
 700   0.0000       2.783300        75.7375 
 701   0.0000       2.794040        76.0297 
 702   0.0000       2.799726        76.1844 
 703   0.0000       2.809037        76.4378 
 704   0.0000       2.818464        76.6943 
 705   0.0000       2.824202        76.8505 
 706   0.0000       2.829642        76.9985 
 707   0.0000       2.838557        77.2411 
 708   0.0000       2.843621        77.3789 
 709   0.0000       2.850339        77.5617 
 710   0.0000       2.853624        77.6511 
 711   0.0000       2.861956        77.8778 
 712   0.0000       2.868244        78.0489 
 713   0.0000       2.876769        78.2809 
 714   0.0000       2.878595        78.3305 
 715   0.0000       2.898103        78.8614 
 716   0.0000       2.911122        79.2157 
 717   0.0000       2.912667        79.2577 
 718   0.0000       2.917795        79.3972 
 719   0.0000       2.930042        79.7305 
 720   0.0000       2.936012        79.8929 
 721   0.0000       2.942451        80.0682 
 722   0.0000       2.950306        80.2819 
 723   0.0000       2.962149        80.6042 
 724   0.0000       2.968741        80.7836 
 725   0.0000       2.969567        80.8060 
 726   0.0000       2.973759        80.9201 
 727   0.0000       2.981166        81.1217 
 728   0.0000       2.990184        81.3670 
 729   0.0000       2.992644        81.4340 
 730   0.0000       3.000610        81.6508 
 731   0.0000       3.017569        82.1122 
 732   0.0000       3.019915        82.1761 
 733   0.0000       3.028176        82.4008 
 734   0.0000       3.037326        82.6498 
 735   0.0000       3.048616        82.9571 
 736   0.0000       3.053249        83.0831 
 737   0.0000       3.063149        83.3525 
 738   0.0000       3.070779        83.5601 
 739   0.0000       3.074298        83.6559 
 740   0.0000       3.084090        83.9224 
 741   0.0000       3.088223        84.0348 
 742   0.0000       3.103573        84.4525 
 743   0.0000       3.110871        84.6511 
 744   0.0000       3.118983        84.8718 
 745   0.0000       3.123391        84.9918 
 746   0.0000       3.126786        85.0842 
 747   0.0000       3.132512        85.2400 
 748   0.0000       3.138379        85.3996 
 749   0.0000       3.154082        85.8269 
 750   0.0000       3.156573        85.8947 
 751   0.0000       3.164023        86.0974 
 752   0.0000       3.168898        86.2301 
 753   0.0000       3.175214        86.4020 
 754   0.0000       3.177406        86.4616 
 755   0.0000       3.182585        86.6025 
 756   0.0000       3.192325        86.8676 
 757   0.0000       3.197409        87.0059 
 758   0.0000       3.204082        87.1875 
 759   0.0000       3.214531        87.4718 
 760   0.0000       3.219742        87.6136 
 761   0.0000       3.228485        87.8516 
 762   0.0000       3.231086        87.9223 
 763   0.0000       3.235438        88.0407 
 764   0.0000       3.244120        88.2770 
 765   0.0000       3.245021        88.3015 
 766   0.0000       3.253556        88.5338 
 767   0.0000       3.258144        88.6586 
 768   0.0000       3.268356        88.9365 
 769   0.0000       3.279754        89.2467 
 770   0.0000       3.287528        89.4582 
 771   0.0000       3.292824        89.6023 
 772   0.0000       3.294928        89.6596 
 773   0.0000       3.300436        89.8094 
 774   0.0000       3.310563        90.0850 
 775   0.0000       3.319778        90.3358 
 776   0.0000       3.327055        90.5338 
 777   0.0000       3.331232        90.6474 
 778   0.0000       3.335870        90.7736 
 779   0.0000       3.340386        90.8965 
 780   0.0000       3.348707        91.1230 
 781   0.0000       3.355852        91.3174 
 782   0.0000       3.361682        91.4760 
 783   0.0000       3.363040        91.5130 
 784   0.0000       3.366966        91.6198 
 785   0.0000       3.373365        91.7939 
 786   0.0000       3.379668        91.9654 
 787   0.0000       3.383371        92.0662 
 788   0.0000       3.394555        92.3705 
 789   0.0000       3.396523        92.4241 
 790   0.0000       3.403843        92.6233 
 791   0.0000       3.415636        92.9442 
 792   0.0000       3.419967        93.0620 
 793   0.0000       3.424763        93.1925 
 794   0.0000       3.427088        93.2558 
 795   0.0000       3.432283        93.3972 
 796   0.0000       3.441450        93.6466 
 797   0.0000       3.444496        93.7295 
 798   0.0000       3.448507        93.8386 
 799   0.0000       3.451577        93.9222 
 800   0.0000       3.459863        94.1477 
 801   0.0000       3.471317        94.4593 
 802   0.0000       3.473027        94.5059 
 803   0.0000       3.479264        94.6756 
 804   0.0000       3.493245        95.0560 
 805   0.0000       3.499934        95.2381 
 806   0.0000       3.502881        95.3182 
 807   0.0000       3.513249        95.6004 
 808   0.0000       3.517361        95.7123 
 809   0.0000       3.519037        95.7579 
 810   0.0000       3.528480        96.0148 
 811   0.0000       3.536244        96.2261 
 812   0.0000       3.540349        96.3378 
 813   0.0000       3.541239        96.3620 
 814   0.0000       3.547269        96.5261 
 815   0.0000       3.555711        96.7558 
 816   0.0000       3.557259        96.7979 
 817   0.0000       3.569022        97.1180 
 818   0.0000       3.583494        97.5118 
 819   0.0000       3.585830        97.5754 
 820   0.0000       3.589291        97.6696 
 821   0.0000       3.596713        97.8715 
 822   0.0000       3.600816        97.9832 
 823   0.0000       3.613614        98.3314 
 824   0.0000       3.614312        98.3504 
 825   0.0000       3.618362        98.4606 
 826   0.0000       3.625983        98.6680 
 827   0.0000       3.632351        98.8413 
 828   0.0000       3.636711        98.9600 
 829   0.0000       3.647009        99.2401 
 830   0.0000       3.651044        99.3500 
 831   0.0000       3.659585        99.5824 
 832   0.0000       3.667382        99.7945 
 833   0.0000       3.672432        99.9320 
 834   0.0000       3.677996       100.0834 
 835   0.0000       3.686538       100.3158 
 836   0.0000       3.698073       100.6297 
 837   0.0000       3.704770       100.8119 
 838   0.0000       3.710004       100.9543 
 839   0.0000       3.715894       101.1146 
 840   0.0000       3.720229       101.2326 
 841   0.0000       3.737058       101.6905 
 842   0.0000       3.745255       101.9136 
 843   0.0000       3.756209       102.2116 
 844   0.0000       3.770275       102.5944 
 845   0.0000       3.779868       102.8554 
 846   0.0000       3.781015       102.8866 
 847   0.0000       3.783291       102.9486 
 848   0.0000       3.798482       103.3619 
 849   0.0000       3.803617       103.5017 
 850   0.0000       3.814114       103.7873 
 851   0.0000       3.817660       103.8838 
 852   0.0000       3.820525       103.9618 
 853   0.0000       3.834217       104.3343 
 854   0.0000       3.838916       104.4622 
 855   0.0000       3.846980       104.6816 
 856   0.0000       3.855504       104.9136 
 857   0.0000       3.859841       105.0316 
 858   0.0000       3.870528       105.3224 
 859   0.0000       3.877649       105.5162 
 860   0.0000       3.881737       105.6274 
 861   0.0000       3.891497       105.8930 
 862   0.0000       3.894635       105.9784 
 863   0.0000       3.906043       106.2888 
 864   0.0000       3.908956       106.3681 
 865   0.0000       3.919699       106.6604 
 866   0.0000       3.921803       106.7177 
 867   0.0000       3.928209       106.8920 
 868   0.0000       3.932982       107.0219 
 869   0.0000       3.940976       107.2394 
 870   0.0000       3.945440       107.3609 
 871   0.0000       3.952624       107.5564 
 872   0.0000       3.964581       107.8817 
 873   0.0000       3.967524       107.9618 
 874   0.0000       3.975087       108.1676 
 875   0.0000       3.985876       108.4612 
 876   0.0000       3.997598       108.7802 
 877   0.0000       4.003217       108.9331 
 878   0.0000       4.009342       109.0997 
 879   0.0000       4.025572       109.5414 
 880   0.0000       4.041566       109.9766 
 881   0.0000       4.048309       110.1601 
 882   0.0000       4.053373       110.2979 
 883   0.0000       4.058077       110.4259 
 884   0.0000       4.061362       110.5153 
 885   0.0000       4.064767       110.6079 
 886   0.0000       4.070383       110.7608 
 887   0.0000       4.084674       111.1496 
 888   0.0000       4.096354       111.4675 
 889   0.0000       4.102484       111.6343 
 890   0.0000       4.110543       111.8536 
 891   0.0000       4.118935       112.0819 
 892   0.0000       4.125050       112.2483 
 893   0.0000       4.134773       112.5129 
 894   0.0000       4.142600       112.7259 
 895   0.0000       4.146748       112.8388 
 896   0.0000       4.159847       113.1952 
 897   0.0000       4.171441       113.5107 
 898   0.0000       4.174771       113.6013 
 899   0.0000       4.180031       113.7444 
 900   0.0000       4.186221       113.9129 
 901   0.0000       4.192951       114.0960 
 902   0.0000       4.198813       114.2555 
 903   0.0000       4.205648       114.4415 
 904   0.0000       4.212442       114.6264 
 905   0.0000       4.215768       114.7169 
 906   0.0000       4.223601       114.9300 
 907   0.0000       4.233276       115.1933 
 908   0.0000       4.238142       115.3257 
 909   0.0000       4.248508       115.6078 
 910   0.0000       4.254768       115.7781 
 911   0.0000       4.259362       115.9031 
 912   0.0000       4.266234       116.0901 
 913   0.0000       4.270878       116.2165 
 914   0.0000       4.275169       116.3333 
 915   0.0000       4.285440       116.6128 
 916   0.0000       4.294805       116.8676 
 917   0.0000       4.299214       116.9876 
 918   0.0000       4.306699       117.1912 
 919   0.0000       4.318060       117.5004 
 920   0.0000       4.321352       117.5900 
 921   0.0000       4.323377       117.6451 
 922   0.0000       4.327792       117.7652 
 923   0.0000       4.335698       117.9803 
 924   0.0000       4.347759       118.3086 
 925   0.0000       4.353740       118.4713 
 926   0.0000       4.361901       118.6934 
 927   0.0000       4.373223       119.0014 
 928   0.0000       4.380351       119.1954 
 929   0.0000       4.390179       119.4628 
 930   0.0000       4.394064       119.5686 
 931   0.0000       4.396424       119.6328 
 932   0.0000       4.403462       119.8243 
 933   0.0000       4.422740       120.3489 
 934   0.0000       4.426752       120.4580 
 935   0.0000       4.428641       120.5095 
 936   0.0000       4.446810       121.0038 
 937   0.0000       4.459934       121.3610 
 938   0.0000       4.469938       121.6332 
 939   0.0000       4.472716       121.7088 
 940   0.0000       4.482217       121.9673 
 941   0.0000       4.501593       122.4946 
 942   0.0000       4.507275       122.6492 
 943   0.0000       4.511592       122.7667 
 944   0.0000       4.540292       123.5476 
 945   0.0000       4.546260       123.7100 
 946   0.0000       4.553750       123.9138 
 947   0.0000       4.557317       124.0109 
 948   0.0000       4.565468       124.2327 
 949   0.0000       4.578123       124.5771 
 950   0.0000       4.596996       125.0906 
 951   0.0000       4.603899       125.2785 
 952   0.0000       4.618865       125.6857 
 953   0.0000       4.626885       125.9039 
 954   0.0000       4.634333       126.1066 
 955   0.0000       4.639979       126.2602 
 956   0.0000       4.651511       126.5741 
 957   0.0000       4.659704       126.7970 
 958   0.0000       4.668472       127.0356 
[...]
      dxz     :     0.139389
      dyz     :     0.128802
      dx2y2   :     0.300963
      dxy     :     0.291641
      f0      :     0.004227  f :     0.059064
      f+1     :     0.004572
      f-1     :     0.004843
      f+2     :     0.006225
      f-2     :     0.006079
      f+3     :     0.016892
      f-3     :     0.016226
 12 C s       :     2.646395  s :     2.646395
      pz      :     0.709547  p :     2.588247
      px      :     0.956532
      py      :     0.922167
      dz2     :     0.058741  d :     0.683146
      dxz     :     0.130345
      dyz     :     0.041081
      dx2y2   :     0.250688
      dxy     :     0.202291
      f0      :     0.002642  f :     0.044689
      f+1     :     0.004039
      f-1     :     0.003384
      f+2     :     0.003481
      f-2     :     0.006107
      f+3     :     0.012369
      f-3     :     0.012668
 13 H s       :     0.687625  s :     0.687625
      pz      :     0.072607  p :     0.262769
      px      :     0.119941
      py      :     0.070220
      dz2     :     0.002841  d :     0.029939
      dxz     :     0.007990
      dyz     :     0.000564
      dx2y2   :     0.009026
      dxy     :     0.009519
 14 C s       :     2.634153  s :     2.634153
      pz      :     0.698319  p :     2.558850
      px      :     0.916332
      py      :     0.944200
      dz2     :     0.062815  d :     0.706730
      dxz     :     0.045478
      dyz     :     0.140266
      dx2y2   :     0.247444
      dxy     :     0.210728
      f0      :     0.002776  f :     0.045004
      f+1     :     0.003444
      f-1     :     0.004183
      f+2     :     0.003330
      f-2     :     0.006667
      f+3     :     0.012001
      f-3     :     0.012602
 15 C s       :     2.644060  s :     2.644060
      pz      :     0.723452  p :     2.599155
      px      :     0.939151
      py      :     0.936552
      dz2     :     0.059030  d :     0.674247
      dxz     :     0.083811
      dyz     :     0.078178
      dx2y2   :     0.174003
      dxy     :     0.279225
      f0      :     0.002640  f :     0.044693
      f+1     :     0.003778
      f-1     :     0.003764
      f+2     :     0.007111
      f-2     :     0.002078
      f+3     :     0.012485
      f-3     :     0.012837
 16 H s       :     0.702923  s :     0.702923
      pz      :     0.071952  p :     0.259475
      px      :     0.069658
      py      :     0.117866
      dz2     :     0.002853  d :     0.029468
      dxz     :     0.000634
      dyz     :     0.007538
      dx2y2   :     0.009081
      dxy     :     0.009362
 17 H s       :     0.684409  s :     0.684409
      pz      :     0.077899  p :     0.297012
      px      :     0.123856
      py      :     0.095257
      dz2     :     0.002965  d :     0.029875
      dxz     :     0.007654
      dyz     :     0.000613
      dx2y2   :     0.009364
      dxy     :     0.009279
 18 H s       :     0.701780  s :     0.701780
      pz      :     0.072868  p :     0.259290
      px      :     0.093263
      py      :     0.093158
      dz2     :     0.002851  d :     0.029625
      dxz     :     0.004160
      dyz     :     0.004210
      dx2y2   :     0.009465
      dxy     :     0.008939
 19 C s       :     2.692285  s :     2.692285
      pz      :     0.760091  p :     2.637135
      px      :     0.859371
      py      :     1.017673
      dz2     :     0.112199  d :     0.944676
      dxz     :     0.121645
      dyz     :     0.221470
      dx2y2   :     0.229373
      dxy     :     0.259989
      f0      :     0.005436  f :     0.054066
      f+1     :     0.003137
      f-1     :     0.007144
      f+2     :     0.005527
      f-2     :     0.007119
      f+3     :     0.013381
      f-3     :     0.012322
 20 C s       :     2.757403  s :     2.757403
      pz      :     0.857938  p :     2.466736
      px      :     0.592873
      py      :     1.015926
      dz2     :     0.076036  d :     0.532523
      dxz     :     0.085925
      dyz     :     0.067284
      dx2y2   :     0.192395
      dxy     :     0.110883
      f0      :     0.002811  f :     0.034085
      f+1     :     0.001786
      f-1     :     0.005206
      f+2     :     0.001920
      f-2     :     0.003659
      f+3     :     0.008051
      f-3     :     0.010652
 21 H s       :     0.697125  s :     0.697125
      pz      :     0.084171  p :     0.283368
      px      :     0.069060
      py      :     0.130136
      dz2     :     0.003663  d :     0.029428
      dxz     :     0.000494
      dyz     :     0.009670
      dx2y2   :     0.009817
      dxy     :     0.005785
 22 Aus       :     2.243231  s :     2.243231
      pz      :     2.369175  p :     6.854661
      px      :     2.338441
      py      :     2.147045
      dz2     :     1.787405  d :     9.537128
      dxz     :     1.923305
      dyz     :     2.006584
      dx2y2   :     1.922613
      dxy     :     1.897222
      f0      :     0.028251  f :     0.123483
      f+1     :     0.031665
      f-1     :     0.016693
      f+2     :     0.011452
      f-2     :     0.009996
      f+3     :     0.010314
      f-3     :     0.015110
      g0      :     0.000249  g :     0.001589
      g+1     :     0.000292
      g-1     :     0.000206
      g+2     :     0.000183
      g-2     :     0.000150
      g+3     :     0.000077
      g-3     :     0.000107
      g+4     :     0.000152
      g-4     :     0.000173
 23 Cls       :     5.693147  s :     5.693147
      pz      :     3.498874  p :    11.173996
      px      :     3.829701
      py      :     3.845421
      dz2     :     0.053061  d :     0.183017
      dxz     :     0.061476
      dyz     :     0.033597
      dx2y2   :     0.023446
      dxy     :     0.011438
      f0      :     0.001792  f :     0.005997
      f+1     :     0.001505
      f-1     :     0.001371
      f+2     :     0.000612
      f-2     :     0.000583
      f+3     :     0.000070
      f-3     :     0.000064
 24 Cls       :     5.703644  s :     5.703644
      pz      :     3.874331  p :    11.213154
      px      :     3.498515
      py      :     3.840308
      dz2     :     0.030929  d :     0.195420
      dxz     :     0.062367
      dyz     :     0.017542
      dx2y2   :     0.048781
      dxy     :     0.035801
      f0      :     0.000618  f :     0.006099
      f+1     :     0.001050
      f-1     :     0.000168
      f+2     :     0.000864
      f-2     :     0.000572
      f+3     :     0.001367
      f-3     :     0.001461
 25 Cls       :     5.686767  s :     5.686767
      pz      :     3.506925  p :    11.154246
      px      :     3.822524
      py      :     3.824797
      dz2     :     0.055382  d :     0.187957
      dxz     :     0.058651
      dyz     :     0.044429
      dx2y2   :     0.016860
      dxy     :     0.012635
      f0      :     0.001764  f :     0.005879
      f+1     :     0.001471
      f-1     :     0.001368
      f+2     :     0.000590
      f-2     :     0.000562
      f+3     :     0.000062
      f-3     :     0.000062
 26 O s       :     3.169609  s :     3.169609
      pz      :     1.469507  p :     4.293669
      px      :     1.479774
      py      :     1.344387
      dz2     :     0.092499  d :     0.544144
      dxz     :     0.077032
      dyz     :     0.131163
      dx2y2   :     0.129720
      dxy     :     0.113731
      f0      :     0.001016  f :     0.006861
      f+1     :     0.000585
      f-1     :     0.001107
      f+2     :     0.000808
      f-2     :     0.001396
      f+3     :     0.000961
      f-3     :     0.000989
 27 O s       :     3.169793  s :     3.169793
      pz      :     1.455283  p :     4.287681
      px      :     1.374408
      py      :     1.457990
      dz2     :     0.095641  d :     0.543722
      dxz     :     0.121508
      dyz     :     0.091368
      dx2y2   :     0.122501
      dxy     :     0.112704
      f0      :     0.001053  f :     0.006895
      f+1     :     0.001098
      f-1     :     0.000696
      f+2     :     0.000774
      f-2     :     0.001376
      f+3     :     0.000862
      f-3     :     0.001036
 28 C s       :     2.631234  s :     2.631234
      pz      :     0.928698  p :     2.555677
      px      :     0.832678
      py      :     0.794300
      dz2     :     0.094067  d :     0.619449
      dxz     :     0.048047
      dyz     :     0.176604
      dx2y2   :     0.168486
      dxy     :     0.132245
      f0      :     0.005766  f :     0.064665
      f+1     :     0.007581
      f-1     :     0.008306
      f+2     :     0.003252
      f-2     :     0.010044
      f+3     :     0.012781
      f-3     :     0.016934
 29 H s       :     0.690351  s :     0.690351
      pz      :     0.120244  p :     0.265418
      px      :     0.060975
      py      :     0.084200
      dz2     :     0.008945  d :     0.029492
      dxz     :     0.005312
      dyz     :     0.008980
      dx2y2   :     0.002863
      dxy     :     0.003392
 30 H s       :     0.699747  s :     0.699747
      pz      :     0.113315  p :     0.255694
      px      :     0.065621
      py      :     0.076758
      dz2     :     0.009627  d :     0.029889
      dxz     :     0.005458
      dyz     :     0.008663
      dx2y2   :     0.002711
      dxy     :     0.003430
 31 H s       :     0.689515  s :     0.689515
      pz      :     0.080726  p :     0.265698
      px      :     0.118159
      py      :     0.066813
      dz2     :     0.002992  d :     0.029534
      dxz     :     0.008570
      dyz     :     0.001694
      dx2y2   :     0.008379
      dxy     :     0.007899
 32 C s       :     2.631658  s :     2.631658
      pz      :     0.925328  p :     2.556091
      px      :     0.819642
      py      :     0.811121
      dz2     :     0.093988  d :     0.619786
      dxz     :     0.163263
      dyz     :     0.062145
      dx2y2   :     0.156988
      dxy     :     0.143402
      f0      :     0.005574  f :     0.064757
      f+1     :     0.007970
      f-1     :     0.008382
      f+2     :     0.004183
      f-2     :     0.009161
      f+3     :     0.016505
      f-3     :     0.012983
 33 H s       :     0.700023  s :     0.700023
      pz      :     0.113995  p :     0.255732
      px      :     0.079125
      py      :     0.062612
      dz2     :     0.009819  d :     0.029892
      dxz     :     0.008776
      dyz     :     0.005455
      dx2y2   :     0.002506
      dxy     :     0.003336
 34 H s       :     0.689652  s :     0.689652
      pz      :     0.081356  p :     0.265632
      px      :     0.074355
      py      :     0.109921
      dz2     :     0.003035  d :     0.029531
      dxz     :     0.002645
      dyz     :     0.007710
      dx2y2   :     0.008085
      dxy     :     0.008056
 35 H s       :     0.690823  s :     0.690823
      pz      :     0.117638  p :     0.265634
      px      :     0.089928
      py      :     0.058068
      dz2     :     0.008447  d :     0.029497
      dxz     :     0.009001
      dyz     :     0.005078
      dx2y2   :     0.003239
      dxy     :     0.003731


                      *****************************
                      * MAYER POPULATION ANALYSIS *
                      *****************************

  NA   - Mulliken gross atomic population
  ZA   - Total nuclear charge
  QA   - Mulliken gross atomic charge
  VA   - Mayer's total valence
  BVA  - Mayer's bonded valence
  FA   - Mayer's free valence

  ATOM       NA         ZA         QA         VA         BVA        FA
  0 C      4.7338     6.0000     1.2662    -2.0759    -2.0759    -0.0000
  1 C      6.7607     6.0000    -0.7607     2.5790     2.5790     0.0000
  2 C      5.4449     6.0000     0.5551     2.8027     2.8027     0.0000
  3 C      6.4864     6.0000    -0.4864     3.7017     3.7017     0.0000
  4 C      5.6116     6.0000     0.3884     3.3483     3.3483    -0.0000
  5 C      6.7450     6.0000    -0.7450     3.4671     3.4671    -0.0000
  6 H      0.5606     1.0000     0.4394     0.8936     0.8936     0.0000
  7 H      0.8300     1.0000     0.1700     0.7448     0.7448     0.0000
  8 H      0.8187     1.0000     0.1813     0.9939     0.9939    -0.0000
  9 C      5.5218     6.0000     0.4782    -0.7545    -0.7545    -0.0000
 10 C      6.4779     6.0000    -0.4779     2.8773     2.8773     0.0000
 11 C      4.6013     6.0000     1.3987    -1.2124    -1.2124    -0.0000
 12 C      6.3109     6.0000    -0.3109     3.3628     3.3628     0.0000
 13 H      0.7928     1.0000     0.2072     0.9430     0.9430     0.0000
 14 C      6.5260     6.0000    -0.5260     2.8633     2.8633     0.0000
 15 C      6.3845     6.0000    -0.3845     3.4496     3.4496     0.0000
 16 H      0.8322     1.0000     0.1678     0.9525     0.9525     0.0000
 17 H      1.0066     1.0000    -0.0066     1.0568     1.0568    -0.0000
 18 H      0.8324     1.0000     0.1676     0.9558     0.9558     0.0000
 19 C      6.0236     6.0000    -0.0236     2.0324     2.0324    -0.0000
 20 C      5.7967     6.0000     0.2033     2.8364     2.8364     0.0000
 21 H      0.8819     1.0000     0.1181     1.1417     1.1417    -0.0000
 22 Au    18.9686    19.0000     0.0314     3.1173     3.1173     0.0000
 23 Cl    17.4184    17.0000    -0.4184     0.8936     0.8936     0.0000
 24 Cl    17.3731    17.0000    -0.3731     0.9336     0.9336     0.0000
 25 Cl    17.4291    17.0000    -0.4291     0.8868     0.8868     0.0000
 26 O      8.4717     8.0000    -0.4717     1.4021     1.4021     0.0000
 27 O      8.4719     8.0000    -0.4719     1.4192     1.4192    -0.0000
 28 C      6.8771     6.0000    -0.8771     3.5376     3.5376     0.0000
 29 H      0.6525     1.0000     0.3475     0.8923     0.8923     0.0000
 30 H      0.7871     1.0000     0.2129     1.0592     1.0592     0.0000
 31 H      0.6367     1.0000     0.3633     0.8758     0.8758     0.0000
 32 C      6.8226     6.0000    -0.8226     3.5641     3.5641     0.0000
 33 H      0.7953     1.0000     0.2047     1.0634     1.0634    -0.0000
 34 H      0.6552     1.0000     0.3448     0.8881     0.8881     0.0000
 35 H      0.6604     1.0000     0.3396     0.8905     0.8905     0.0000

  Mayer bond orders larger than 0.100000
B(  0-C ,  1-C ) :   0.1149 B(  0-C ,  3-C ) :  -0.4569 B(  0-C ,  4-C ) :  -0.1456 
B(  0-C ,  5-C ) :   0.7002 B(  0-C ,  6-H ) :  -0.2575 B(  0-C ,  8-H ) :  -0.2708 
B(  0-C ,  9-C ) :  -1.5044 B(  0-C , 10-C ) :  -0.1107 B(  0-C , 12-C ) :  -0.1386 
B(  0-C , 15-C ) :   0.1217 B(  1-C ,  2-C ) :   0.9645 B(  1-C ,  5-C ) :   0.2221 
B(  1-C ,  6-H ) :   1.0506 B(  1-C ,  9-C ) :  -0.1849 B(  1-C , 10-C ) :   0.4695 
B(  1-C , 12-C ) :  -0.1175 B(  1-C , 14-C ) :  -0.1285 B(  1-C , 20-C ) :   0.1532 
B(  2-C ,  3-C ) :   1.4317 B(  2-C ,  4-C ) :   0.1480 B(  2-C ,  6-H ) :   0.1652 
B(  2-C ,  9-C ) :   0.1085 B(  2-C , 10-C ) :  -0.3435 B(  2-C , 11-C ) :   0.1252 
B(  2-C , 12-C ) :   0.1218 B(  2-C , 14-C ) :   0.1700 B(  2-C , 19-C ) :  -0.1265 
B(  2-C , 20-C ) :  -0.1480 B(  2-C , 26-O ) :   0.5810 B(  2-C , 28-C ) :  -0.1137 
B(  3-C ,  4-C ) :   1.3257 B(  3-C ,  7-H ) :   1.0767 B(  3-C ,  9-C ) :   0.1268 
B(  3-C , 10-C ) :   0.1239 B(  3-C , 11-C ) :  -0.1375 B(  4-C ,  5-C ) :   1.4237 
B(  4-C , 10-C ) :  -0.2125 B(  4-C , 27-O ) :   0.7026 B(  5-C ,  6-H ) :  -0.1003 
B(  5-C ,  8-H ) :   1.1405 B(  5-C ,  9-C ) :  -0.1654 B(  5-C , 10-C ) :   0.2308 
B(  5-C , 11-C ) :  -0.1469 B(  5-C , 19-C ) :   0.1196 B(  5-C , 20-C ) :   0.1506 
B(  9-C , 10-C ) :   0.3348 B(  9-C , 11-C ) :   0.9373 B(  9-C , 13-H ) :  -0.2585 
B( 10-C , 12-C ) :   1.2783 B( 10-C , 13-H ) :   1.1406 B( 10-C , 19-C ) :   0.1086 
B( 11-C , 14-C ) :   0.2661 B( 11-C , 17-H ) :  -0.5660 B( 11-C , 19-C ) :  -0.4657 
B( 11-C , 20-C ) :   0.1347 B( 11-C , 22-Au) :  -0.7281 B( 11-C , 25-Cl) :  -0.2247 
B( 12-C , 15-C ) :   1.1081 B( 12-C , 16-H ) :   1.0697 B( 14-C , 15-C ) :   1.3751 
B( 14-C , 17-H ) :   1.3742 B( 14-C , 19-C ) :   0.1086 B( 15-C , 18-H ) :   1.0699 
B( 19-C , 20-C ) :   1.6019 B( 19-C , 21-H ) :  -0.1777 B( 19-C , 22-Au) :   0.6299 
B( 19-C , 25-Cl) :   0.4226 B( 20-C , 21-H ) :   1.1779 B( 20-C , 22-Au) :   0.2466 
B( 20-C , 23-Cl) :  -0.2554 B( 20-C , 25-Cl) :  -0.4169 B( 22-Au, 23-Cl) :   0.9954 
B( 22-Au, 24-Cl) :   0.8432 B( 22-Au, 25-Cl) :   0.9701 B( 23-Cl, 25-Cl) :   0.1228 
B( 26-O , 28-C ) :   0.8541 B( 27-O , 32-C ) :   0.8353 B( 28-C , 29-H ) :   0.8740 
B( 28-C , 30-H ) :   1.0460 B( 28-C , 31-H ) :   0.8695 B( 32-C , 33-H ) :   1.0507 
B( 32-C , 34-H ) :   0.8822 B( 32-C , 35-H ) :   0.8828 

-------
TIMINGS
-------

Total SCF time: 0 days 0 hours 33 min 20 sec 

Total time                  ....    2000.495 sec
Sum of individual times     ....    1998.060 sec  ( 99.9%)

Fock matrix formation       ....    1987.709 sec  ( 99.4%)
  XC integration            ....      20.490 sec  (  1.0% of F)
    Basis function eval.    ....       2.024 sec  (  9.9% of XC)
    Density eval.           ....       8.127 sec  ( 39.7% of XC)
    XC-Functional eval.     ....       0.166 sec  (  0.8% of XC)
    XC-Potential eval.      ....       8.566 sec  ( 41.8% of XC)
Diagonalization             ....       3.368 sec  (  0.2%)
Density matrix formation    ....       0.197 sec  (  0.0%)
Population analysis         ....       0.299 sec  (  0.0%)
Initial guess               ....       2.160 sec  (  0.1%)
Orbital Transformation      ....       0.000 sec  (  0.0%)
Orbital Orthonormalization  ....       0.000 sec  (  0.0%)
DIIS solution               ....       3.150 sec  (  0.2%)
Grid generation             ....       1.177 sec  (  0.1%)

-------------------------   --------------------
FINAL SINGLE POINT ENERGY     -2284.781151746572
-------------------------   --------------------


                            ***************************************
                            *     ORCA property calculations      *
                            ***************************************

                                    ---------------------
                                    Active property flags
                                    ---------------------
   (+) Dipole Moment


------------------------------------------------------------------------------
                       ORCA ELECTRIC PROPERTIES CALCULATION
------------------------------------------------------------------------------

Dipole Moment Calculation                       ... on
Quadrupole Moment Calculation                   ... off
Polarizability Calculation                      ... off
GBWName                                         ... TMB26_T1.gbw
Electron density file                           ... TMB26_T1.scfp
The origin for moment calculation is the CENTER OF MASS  = ( 0.485035, -0.082092 -0.032589)

-------------
DIPOLE MOMENT
-------------
                                X             Y             Z
Electronic contribution:    332.59655     -71.59241     -21.68172
Nuclear contribution   :   -337.50313      71.82916      22.27008
                        -----------------------------------------
Total Dipole Moment    :     -4.90657       0.23675       0.58836
                        -----------------------------------------
Magnitude (a.u.)       :      4.94739
Magnitude (Debye)      :     12.57526



--------------------
Rotational spectrum 
--------------------
 
Rotational constants in cm-1:     0.008801     0.003370     0.003018 
Rotational constants in MHz :   263.837003   101.042363    90.466575 

 Dipole components along the rotational axes: 
x,y,z [a.u.] :     4.915059     0.085204     0.558195 
x,y,z [Debye]:    12.493088     0.216572     1.418818 

 

Timings for individual modules:

Sum of individual times         ...     2005.469 sec (=  33.424 min)
GTO integral calculation        ...        4.566 sec (=   0.076 min)   0.2 %
SCF iterations                  ...     2000.903 sec (=  33.348 min)  99.8 %
                             ****ORCA TERMINATED NORMALLY****
TOTAL RUN TIME: 0 days 0 hours 33 minutes 26 seconds 153 msec
