
                                 *****************
                                 * O   R   C   A *
                                 *****************

           --- An Ab Initio, DFT and Semiempirical electronic structure package ---

                  #######################################################
                  #                        -***-                        #
                  #          Department of theory and spectroscopy      #
                  #               Directorship: Frank Neese             #
                  #        Max Planck Institute fuer Kohlenforschung    #
                  #                Kaiser Wilhelm Platz 1               #
                  #                 D-45470 Muelheim/Ruhr               #
                  #                      Germany                        #
                  #                                                     #
                  #                  All rights reserved                #
                  #                        -***-                        #
                  #######################################################


                         Program Version 4.2.0 -  RELEASE  -


 With contributions from (in alphabetic order):
   Daniel Aravena         : Magnetic Suceptibility
   Michael Atanasov       : Ab Initio Ligand Field Theory (pilot matlab implementation)
   Alexander A. Auer      : GIAO ZORA, VPT2
   Ute Becker             : Parallelization
   Giovanni Bistoni       : ED, misc. LED, open-shell LED, HFLED
   Martin Brehm           : Molecular dynamics
   Dmytro Bykov           : SCF Hessian
   Vijay G. Chilkuri      : MRCI spin determinant printing, contributions to CSF-ICE
   Dipayan Datta          : RHF DLPNO-CCSD density
   Achintya Kumar Dutta   : EOM-CC, STEOM-CC
   Dmitry Ganyushin       : Spin-Orbit,Spin-Spin,Magnetic field MRCI
   Miquel Garcia          : C-PCM Hessian, Gaussian charge scheme
   Yang Guo               : DLPNO-NEVPT2, CIM, IAO-localization
   Andreas Hansen         : Spin unrestricted coupled pair/coupled cluster methods
   Benjamin Helmich-Paris : CASSCF linear response (MC-RPA)
   Lee Huntington         : MR-EOM, pCC
   Robert Izsak           : Overlap fitted RIJCOSX, COSX-SCS-MP3, EOM
   Christian Kollmar      : KDIIS, OOCD, Brueckner-CCSD(T), CCSD density
   Simone Kossmann        : Meta GGA functionals, TD-DFT gradient, OOMP2, MP2 Hessian
   Martin Krupicka        : AUTO-CI
   Lucas Lang             : DCDCAS
   Dagmar Lenk            : GEPOL surface, SMD
   Dimitrios Liakos       : Extrapolation schemes; Compound Job, initial MDCI parallelization
   Dimitrios Manganas     : Further ROCIS development; embedding schemes
   Dimitrios Pantazis     : SARC Basis sets
   Taras Petrenko         : DFT Hessian,TD-DFT gradient, ASA, ECA, R-Raman, ABS, FL, XAS/XES, NRVS
   Peter Pinski           : DLPNO-MP2, DLPNO-MP2 Gradient
   Christoph Reimann      : Effective Core Potentials
   Marius Retegan         : Local ZFS, SOC
   Christoph Riplinger    : Optimizer, TS searches, QM/MM, DLPNO-CCSD(T), (RO)-DLPNO pert. Triples
   Tobias Risthaus        : Range-separated hybrids, TD-DFT gradient, RPA, STAB
   Michael Roemelt        : Original ROCIS implementation
   Masaaki Saitow         : Open-shell DLPNO-CCSD energy and density
   Barbara Sandhoefer     : DKH picture change effects
   Avijit Sen             : IP-ROCIS
   Kantharuban Sivalingam : CASSCF convergence, NEVPT2, FIC-MRCI
   Bernardo de Souza      : ESD, SOC TD-DFT
   Georgi Stoychev        : AutoAux, RI-MP2 NMR
   Willem Van den Heuvel  : Paramagnetic NMR
   Boris Wezisla          : Elementary symmetry handling
   Frank Wennmohs         : Technical directorship


 We gratefully acknowledge several colleagues who have allowed us to
 interface, adapt or use parts of their codes:
   Stefan Grimme, W. Hujo, H. Kruse,             : VdW corrections, initial TS optimization,
                  C. Bannwarth                     DFT functionals, gCP, sTDA/sTD-DF
   Ed Valeev, F. Pavosevic, A. Kumar             : LibInt (2-el integral package), F12 methods
   Garnet Chan, S. Sharma, J. Yang, R. Olivares  : DMRG
   Ulf Ekstrom                                   : XCFun DFT Library
   Mihaly Kallay                                 : mrcc  (arbitrary order and MRCC methods)
   Andreas Klamt, Michael Diedenhofen            : otool_cosmo (COSMO solvation model)
   Jiri Pittner, Ondrej Demel                    : Mk-CCSD
   Frank Weinhold                                : gennbo (NPA and NBO analysis)
   Christopher J. Cramer and Donald G. Truhlar   : smd solvation model
   Lars Goerigk                                  : TD-DFT with DH, B97 family of functionals
   V. Asgeirsson, H. Jonsson                     : NEB implementation
   FAccTs GmbH                                   : IRC, NEB, NEB-TS, Multilevel, MM, QM/MM, CI optimization
   S Lehtola, MJT Oliveira, MAL Marques          : LibXC Library


 Your calculation uses the libint2 library for the computation of 2-el integrals
 For citations please refer to: http://libint.valeyev.net

 Your ORCA version has been built with support for libXC version: 4.2.3
 For citations please refer to: https://tddft.org/programs/libxc/

 This ORCA versions uses:
   CBLAS   interface :  Fast vector & matrix operations
   LAPACKE interface :  Fast linear algebra routines
   SCALAPACK package :  Parallel linear algebra routines


Your calculation utilizes the DFT-NL dispersion correction.
Cite in your paper:
Vydrov, O. A.; Van Voorhis, T. J. Chem. Phys. 2010, 133, 244103
Hujo, W.; Grimme, S. J. Chem. Theory Comput. 2011, 7, 3866 
   

----- Orbital basis set information -----
Your calculation utilizes the basis: def2-TZVPPD
   F. Weigend and R. Ahlrichs, Phys. Chem. Chem. Phys. 7, 3297 (2005).
   D. Rappoport and F. Furche, J. Chem. Phys. 133 134105 (2010).

----- AuxJK basis set information -----
Your calculation utilizes the auxiliary basis: def2/JK
   H-Ba, Hf-Rn: F. Weigend, J. Comput. Chem. 29, 167 (2008).

cite the ECPs for Re [Def2-ECP] as follows:
Ce-Yb(ecp-28): M. Dolg, H. Stoll, H.Preuss, J. Chem. Phys., 1989, 90, 1730-1734.
Y-Cd(ecp-28), Hf-Hg(ecp-46): D. Andrae,U. Haeussermann, M. Dolg, H. Stoll, H. Preuss, Theor. Chim. Acta, 1990, 77, 123-141.
In-Sb(ecp-28), Tl-Bi(ecp-46): B. Metz, H. Stoll, M. Dolg, J. Chem. Phys., 2000, 113, 2563-2569.
Te-Xe(ecp-28), Po-Rn(ecp-46): K. A. Peterson, D. Figgen, E. Goll, H. Stoll, M. Dolg, J. Chem. Phys., 2003, 119, 11113-11123.
Rb(ecp-28), Cs(ecp-46): T. Leininger, A. Nicklass, W. Kuechle, H. Stoll, M. Dolg, A. Bergner, Chem. Phys. Lett., 1996, 255, 274-280.
Sr(ecp-28), Ba(ecp-46): M. Kaupp, P. V. Schleyer, H. Stoll and H. Preuss, J. Chem. Phys., 1991, 94, 1360-1366.
La(ecp-46): M. Dolg, H. Stoll, A. Savin, H. Preuss, Theor. Chim. Acta, 1989, 75, 173-194.
Lu(ecp-28): X. Cao, M. Dolg, J. Chem. Phys., 2001, 115, 7348-7355.

ECP parameters for Re [Def2-ECP] have been obtained from:
TURBOMOLE (7.0.2)

================================================================================
                                        WARNINGS
                       Please study these warnings very carefully!
================================================================================


INFO   : the flag for use of LIBINT has been found!

================================================================================
                                       INPUT FILE
================================================================================
NAME = TMB20_T1.in
|  1> #
|  2> # TMB20_T1 wB97M-V/Def2-TZVPPD
|  3> #
|  4> ! wb97m-v def2-tzvppd def2/jk grid4 nofinalgrid
|  5> 
|  6> *xyz 0 1
|  7> Re       1.075850    0.159419    0.019780 
|  8> C        2.196750   -0.403878   -1.423482 
|  9> C        2.402994   -0.436307    1.215711 
| 10> C        1.922458    1.855293   -0.011396 
| 11> Br      -0.261613   -2.102343    0.064683 
| 12> O        2.449833    2.881230   -0.022028 
| 13> O        2.868443   -0.722069   -2.296753 
| 14> O        3.210599   -0.792996    1.955405 
| 15> C       -1.539667    1.495797    1.625423 
| 16> C       -0.428781    0.920088    1.558456 
| 17> C       -2.591644    1.677755   -0.408432 
| 18> C       -3.343269    0.487162   -0.270226 
| 19> O       -2.954237   -0.721219   -0.381568 
| 20> O       -4.608112    0.658864    0.009021 
| 21> C       -1.326616    1.715594   -1.019432 
| 22> O       -0.664105    0.697605   -1.265770 
| 23> H       -1.956019   -0.923705   -0.405218 
| 24> C       -5.425994   -0.504251    0.214760 
| 25> H       -6.403655   -0.115620    0.482117 
| 26> H       -5.482311   -1.089893   -0.701194 
| 27> H       -5.017526   -1.116193    1.017061 
| 28> H        0.138084    0.692302    2.461523 
| 29> H       -3.155110    2.594425   -0.305352 
| 30> H       -2.375145    2.018826    2.037613 
| 31> H       -0.897368    2.710605   -1.208716 
| 32> *
| 33> 
| 34> %maxcore 5000
| 35> 
| 36> %pal
| 37> nprocs = 24
| 38> end
| 39> 
| 40> 
| 41>                          ****END OF INPUT****
================================================================================

                       ****************************
                       * Single Point Calculation *
                       ****************************

---------------------------------
CARTESIAN COORDINATES (ANGSTROEM)
---------------------------------
  Re     1.075850    0.159419    0.019780
  C      2.196750   -0.403878   -1.423482
  C      2.402994   -0.436307    1.215711
  C      1.922458    1.855293   -0.011396
  Br    -0.261613   -2.102343    0.064683
  O      2.449833    2.881230   -0.022028
  O      2.868443   -0.722069   -2.296753
  O      3.210599   -0.792996    1.955405
  C     -1.539667    1.495797    1.625423
  C     -0.428781    0.920088    1.558456
  C     -2.591644    1.677755   -0.408432
  C     -3.343269    0.487162   -0.270226
  O     -2.954237   -0.721219   -0.381568
  O     -4.608112    0.658864    0.009021
  C     -1.326616    1.715594   -1.019432
  O     -0.664105    0.697605   -1.265770
  H     -1.956019   -0.923705   -0.405218
  C     -5.425994   -0.504251    0.214760
  H     -6.403655   -0.115620    0.482117
  H     -5.482311   -1.089893   -0.701194
  H     -5.017526   -1.116193    1.017061
  H      0.138084    0.692302    2.461523
  H     -3.155110    2.594425   -0.305352
  H     -2.375145    2.018826    2.037613
  H     -0.897368    2.710605   -1.208716

----------------------------
CARTESIAN COORDINATES (A.U.)
----------------------------
  NO LB      ZA    FRAG     MASS         X           Y           Z
   0 Re   15.0000*   0   186.207    2.033062    0.301258    0.037379
   1 C     6.0000    0    12.011    4.151256   -0.763219   -2.689991
   2 C     6.0000    0    12.011    4.541001   -0.824501    2.297361
   3 C     6.0000    0    12.011    3.632919    3.505996   -0.021535
   4 Br   35.0000    0    79.900   -0.494377   -3.972853    0.122233
   5 O     8.0000    0    15.999    4.629513    5.444736   -0.041627
   6 O     8.0000    0    15.999    5.420572   -1.364513   -4.340234
   7 O     8.0000    0    15.999    6.067153   -1.498545    3.695180
   8 C     6.0000    0    12.011   -2.909549    2.826647    3.071604
   9 C     6.0000    0    12.011   -0.810279    1.738714    2.945055
  10 C     6.0000    0    12.011   -4.897497    3.170497   -0.771825
  11 C     6.0000    0    12.011   -6.317863    0.920603   -0.510653
  12 O     8.0000    0    15.999   -5.582699   -1.362906   -0.721059
  13 O     8.0000    0    15.999   -8.708070    1.245073    0.017047
  14 C     6.0000    0    12.011   -2.506941    3.242003   -1.926447
  15 O     8.0000    0    15.999   -1.254977    1.318282   -2.391959
  16 H     1.0000    0     1.008   -3.696340   -1.745549   -0.765751
  17 C     6.0000    0    12.011  -10.253643   -0.952896    0.405838
  18 H     1.0000    0     1.008  -12.101154   -0.218490    0.911069
  19 H     1.0000    0     1.008  -10.360066   -2.059599   -1.325065
  20 H     1.0000    0     1.008   -9.481750   -2.109299    1.921967
  21 H     1.0000    0     1.008    0.260941    1.308261    4.651604
  22 H     1.0000    0     1.008   -5.962294    4.902753   -0.577032
  23 H     1.0000    0     1.008   -4.488374    3.815028    3.850531
  24 H     1.0000    0     1.008   -1.695780    5.122301   -2.284142
* core charge reduced due to ECP

--------------------------------
INTERNAL COORDINATES (ANGSTROEM)
--------------------------------
 Re     0   0   0     0.000000000000     0.00000000     0.00000000
 C      1   0   0     1.912256656637     0.00000000     0.00000000
 C      1   2   0     1.883202490592    88.45452712     0.00000000
 C      1   2   3     1.895707169506    89.38867851    88.79598737
 Br     1   2   3     2.628001312865    93.30733532   265.74777922
 O      4   1   2     1.153596184988   179.20725912   279.50190469
 O      2   1   3     1.146742882328   178.94583896   237.02254696
 O      3   1   2     1.151781269331   179.40405255   155.30035905
 C      1   2   3     3.347375804959   159.65896846   177.09594184
 C      9   1   2     1.252993669883    25.60226126   179.95863656
 C      9   1   2     2.297026443757    87.98006171     8.65040723
 C     11   9   1     1.414762429071    95.17221284    97.45738772
 O     12  11   9     1.274334170910   128.84911834   284.49313003
 O     12  11   9     1.306632419031   115.12361232   104.53029385
 C     11   9   1     1.405364234177    88.55847477   334.53739383
 O     15  11   9     1.239316279037   123.05866112    81.75371659
 H     13  12  11     1.018822397781   119.31402339    12.62642587
 C     14  12  11     1.436696211894   118.37839573   182.32564502
 H     18  14  12     1.085511331369   104.96019297   176.98298992
 H     18  14  12     1.088632117278   110.15020797   296.16038259
 H     18  14  12     1.088579814708   110.30593508    57.40293649
 H     10   9   1     1.090299223383   120.84219174   175.74015309
 H     11   9   1     1.080927059730   102.79555539   214.88609378
 H      9   1   2     1.068402274158   172.53118452   322.66132534
 H     15  11   9     1.100058711288   116.76946106   266.36220820

---------------------------
INTERNAL COORDINATES (A.U.)
---------------------------
 Re     0   0   0     0.000000000000     0.00000000     0.00000000
 C      1   0   0     3.613641378812     0.00000000     0.00000000
 C      1   2   0     3.558736961938    88.45452712     0.00000000
 C      1   2   3     3.582367380477    89.38867851    88.79598737
 Br     1   2   3     4.966202760901    93.30733532   265.74777922
 O      4   1   2     2.179980858763   179.20725912   279.50190469
 O      2   1   3     2.167029993624   178.94583896   237.02254696
 O      3   1   2     2.176551165216   179.40405255   155.30035905
 C      1   2   3     6.325623538686   159.65896846   177.09594184
 C      9   1   2     2.367814883615    25.60226126   179.95863656
 C      9   1   2     4.340750901075    87.98006171     8.65040723
 C     11   9   1     2.673513535505    95.17221284    97.45738772
 O     12  11   9     2.408142586118   128.84911834   284.49313003
 O     12  11   9     2.469177429671   115.12361232   104.53029385
 C     11   9   1     2.655753521003    88.55847477   334.53739383
 O     15  11   9     2.341968360690   123.05866112    81.75371659
 H     13  12  11     1.925295310911   119.31402339    12.62642587
 C     14  12  11     2.714962378121   118.37839573   182.32564502
 H     18  14  12     2.051319131556   104.96019297   176.98298992
 H     18  14  12     2.057216562246   110.15020797   296.16038259
 H     18  14  12     2.057117724712   110.30593508    57.40293649
 H     10   9   1     2.060366936221   120.84219174   175.74015309
 H     11   9   1     2.042656113634   102.79555539   214.88609378
 H      9   1   2     2.018987699016   172.53118452   322.66132534
 H     15  11   9     2.078809695569   116.76946106   266.36220820

---------------------
BASIS SET INFORMATION
---------------------
There are 5 groups of distinct atoms

 Group   1 Type Re  : 8s8p6d2f1g contracted to 6s5p3d2f1g pattern {311111/41111/411/11/1}
 Group   2 Type C   : 12s6p3d1f contracted to 6s3p3d1f pattern {621111/411/111/1}
 Group   3 Type Br  : 18s14p9d1f contracted to 7s6p5d1f pattern {8421111/641111/51111/1}
 Group   4 Type O   : 12s7p3d1f contracted to 6s4p3d1f pattern {621111/4111/111/1}
 Group   5 Type H   : 5s3p1d contracted to 3s3p1d pattern {311/111/1}

Atom   0Re   basis set group =>   1
Atom   1C    basis set group =>   2
Atom   2C    basis set group =>   2
Atom   3C    basis set group =>   2
Atom   4Br   basis set group =>   3
Atom   5O    basis set group =>   4
Atom   6O    basis set group =>   4
Atom   7O    basis set group =>   4
Atom   8C    basis set group =>   2
Atom   9C    basis set group =>   2
Atom  10C    basis set group =>   2
Atom  11C    basis set group =>   2
Atom  12O    basis set group =>   4
Atom  13O    basis set group =>   4
Atom  14C    basis set group =>   2
Atom  15O    basis set group =>   4
Atom  16H    basis set group =>   5
Atom  17C    basis set group =>   2
Atom  18H    basis set group =>   5
Atom  19H    basis set group =>   5
Atom  20H    basis set group =>   5
Atom  21H    basis set group =>   5
Atom  22H    basis set group =>   5
Atom  23H    basis set group =>   5
Atom  24H    basis set group =>   5
----------------------------------
AUXILIARY/JK BASIS SET INFORMATION
----------------------------------
There are 5 groups of distinct atoms

 Group   1 Type Re  : 13s12p11d9f5g3h2i contracted to 11s9p9d7f4g3h2i pattern {31111111111/411111111/311111111/3111111/2111/111/11}
 Group   2 Type C   : 14s10p6d2f1g contracted to 10s8p5d1f1g pattern {5111111111/31111111/21111/2/1}
 Group   3 Type Br  : 20s14p13d10f7g3h contracted to 17s13p12d9f6g3h pattern {41111111111111111/2111111111111/211111111111/211111111/211111/111}
 Group   4 Type O   : 14s10p6d2f1g contracted to 10s8p4d2f1g pattern {5111111111/31111111/3111/11/1}
 Group   5 Type H   : 4s2p2d contracted to 2s2p2d pattern {31/11/11}

Atom   0Re   basis set group =>   1
Atom   1C    basis set group =>   2
Atom   2C    basis set group =>   2
Atom   3C    basis set group =>   2
Atom   4Br   basis set group =>   3
Atom   5O    basis set group =>   4
Atom   6O    basis set group =>   4
Atom   7O    basis set group =>   4
Atom   8C    basis set group =>   2
Atom   9C    basis set group =>   2
Atom  10C    basis set group =>   2
Atom  11C    basis set group =>   2
Atom  12O    basis set group =>   4
Atom  13O    basis set group =>   4
Atom  14C    basis set group =>   2
Atom  15O    basis set group =>   4
Atom  16H    basis set group =>   5
Atom  17C    basis set group =>   2
Atom  18H    basis set group =>   5
Atom  19H    basis set group =>   5
Atom  20H    basis set group =>   5
Atom  21H    basis set group =>   5
Atom  22H    basis set group =>   5
Atom  23H    basis set group =>   5
Atom  24H    basis set group =>   5
-------------------------
ECP PARAMETER INFORMATION
-------------------------

 Group 1, Type Re ECP Def2-ECP (replacing 60 core electrons, lmax=3)

Atom   0Re   ECP group =>   1



           ************************************************************
           *        Program running with 24 parallel MPI-processes    *
           *              working on a common directory               *
           ************************************************************
------------------------------------------------------------------------------
                           ORCA GTO INTEGRAL CALCULATION
------------------------------------------------------------------------------

                         BASIS SET STATISTICS AND STARTUP INFO

 # of primitive gaussian shells          ...  475
 # of primitive gaussian functions       ... 1147
 # of contracted shells                  ...  293
 # of contracted basis functions         ...  825
 Highest angular momentum                ...    4
 Maximum contraction depth               ...    8
 Integral package used                   ... LIBINT
 Integral threshhold            Thresh   ...  1.000e-10
 Primitive cut-off              TCut     ...  1.000e-11


------------------------------ INTEGRAL EVALUATION ----------------------------


 * One electron integrals 

   ECP integrals                         ... done
 Pre-screening matrix                    ... done
 Shell pair data                         ... done (   0.010 sec)



           ************************************************************
           *        Program running with 24 parallel MPI-processes    *
           *              working on a common directory               *
           ************************************************************
-------------------------------------------------------------------------------
                                 ORCA SCF
-------------------------------------------------------------------------------

------------
SCF SETTINGS
------------
Hamiltonian:
 Density Functional     Method          .... DFT(GTOs)
 Exchange Functional    Exchange        .... WB97M-V
 Correlation Functional Correlation     .... WB97M-V
 Gradients option       PostSCFGGA      .... off
 Hybrid DFT is turned on
   Fraction HF Exchange ScalHFX         ....  0.150000
   Scaling of DF-GGA-X  ScalDFX         ....  0.000000
   Scaling of DF-GGA-C  ScalDFC         ....  1.000000
   Scaling of DF-LDA-C  ScalLDAC        ....  1.000000
   Perturbative correction              ....  0.000000
   Density functional embedding theory  .... OFF
 Long-range corrected/Screened/Range-Separated Hybrid DFT is turned on
   Amount of maximum screened exact exchange              ....  0.850000
   Range separation parameter mu (erf(mu*r12)/r12)        ....  0.300000
   NL short-range parameter             ....  6.000000
   NL long-range parameter              ....  0.010000


General Settings:
 Integral files         IntName         .... TMB20_T1
 Hartree-Fock type      HFTyp           .... RHF
 Total Charge           Charge          ....    0
 Multiplicity           Mult            ....    1
 Number of Electrons    NEL             ....  160
 Basis Dimension        Dim             ....  825
 Nuclear Repulsion      ENuc            ....   1782.4012873980 Eh

Convergence Acceleration:
 DIIS                   CNVDIIS         .... on
   Start iteration      DIISMaxIt       ....    12
   Startup error        DIISStart       ....  0.200000
   # of expansion vecs  DIISMaxEq       ....     5
   Bias factor          DIISBfac        ....   1.050
   Max. coefficient     DIISMaxC        ....  10.000
 Newton-Raphson         CNVNR           .... off
 SOSCF                  CNVSOSCF        .... off
 Level Shifting         CNVShift        .... on
   Level shift para.    LevelShift      ....    0.2500
   Turn off err/grad.   ShiftErr        ....    0.0010
 Zerner damping         CNVZerner       .... off
 Static damping         CNVDamp         .... on
   Fraction old density DampFac         ....    0.7000
   Max. Damping (<1)    DampMax         ....    0.9800
   Min. Damping (>=0)   DampMin         ....    0.0000
   Turn off err/grad.   DampErr         ....    0.1000
 Fernandez-Rico         CNVRico         .... off

SCF Procedure:
 Maximum # iterations   MaxIter         ....   125
 SCF integral mode      SCFMode         .... Direct
   Integral package                     .... LIBINT
 Reset frequency        DirectResetFreq ....    20
 Integral Threshold     Thresh          ....  1.000e-10 Eh
 Primitive CutOff       TCut            ....  1.000e-11 Eh

Convergence Tolerance:
 Convergence Check Mode ConvCheckMode   .... Total+1el-Energy
 Convergence forced     ConvForced      .... 0
 Energy Change          TolE            ....  1.000e-06 Eh
 1-El. energy change                    ....  1.000e-03 Eh
 DIIS Error             TolErr          ....  1.000e-06


Diagonalization of the overlap matrix:
Smallest eigenvalue                        ... 5.557e-07
Time for diagonalization                   ...    0.142 sec
Threshold for overlap eigenvalues          ... 1.000e-08
Number of eigenvalues below threshold      ... 0
Time for construction of square roots      ...    0.093 sec
Total time needed                          ...    0.238 sec

-------------------
DFT GRID GENERATION
-------------------

General Integration Accuracy     IntAcc      ...  4.670
Radial Grid Type                 RadialGrid  ... Gauss-Chebyshev
Angular Grid (max. acc.)         AngularGrid ... Lebedev-302
Angular grid pruning method      GridPruning ... 3 (G Style)
Weight generation scheme         WeightScheme... Becke
Basis function cutoff            BFCut       ...    1.0000e-10
Integration weight cutoff        WCut        ...    1.0000e-14
Grids for H and He will be reduced by one unit

# of grid points (after initial pruning)     ... 141600 (   0.0 sec)
# of grid points (after weights+screening)   ... 127622 (   0.1 sec)
nearest neighbour list constructed           ...    0.0 sec
Grid point re-assignment to atoms done       ...    0.0 sec
Grid point division into batches done        ...    0.5 sec
Reduced shell lists constructed in    0.6 sec

Total number of grid points                  ...   127622
Total number of batches                      ...     2006
Average number of points per batch           ...       63
Average number of grid points per atom       ...     5105
Average number of shells per batch           ...   183.13 (62.50%)
Average number of basis functions per batch  ...   529.84 (64.22%)
Average number of large shells per batch     ...   140.98 (76.98%)
Average number of large basis fcns per batch ...   408.08 (77.02%)
Maximum spatial batch extension              ...   1.80,  1.67,  1.90 au
Average spatial batch extension              ...   0.04,  0.04,  0.04 au

Time for grid setup =    0.830 sec

------------------------------
INITIAL GUESS: MODEL POTENTIAL
------------------------------
Loading Hartree-Fock densities                     ... done
  calling /sw/apps/orca/orca_4_2_0_linux_x86-64_openmpi314/orca TMB20_T1_atom75.inp > TMB20_T1_atom75.out in order to generate an atomic fitting density for atom 0 (Re with ECP) on-the-fly... 
    atom 0 (Re), assumed electronic state with S=6: 1s2 2s2 2p6 3s2 3p6 4s2 3d10 4p6 5s2 4d10 5p6 6s2 4f14 5d5           ... done
Calculating cut-offs                               ... done
Setting up the integral package                    ... done
Initializing the effective Hamiltonian             ... done
Starting the Coulomb interaction                   ... done (   0.1 sec)
Reading the grid                                   ... done
Mapping shells                                     ... done
Starting the XC term evaluation                    ... done (   0.4 sec)
  promolecular density results
     # of electrons  =    219.998602657
     EX              =   -519.388486741
     EC              =     -9.942805749
     EX+EC           =   -529.331292490
Transforming the Hamiltonian                       ... done (   0.1 sec)
Diagonalizing the Hamiltonian                      ... done (   0.1 sec)
Back transforming the eigenvectors                 ... done (   0.0 sec)
Now organizing SCF variables                       ... done
                      ------------------
                      INITIAL GUESS DONE (   3.2 sec)
                      ------------------
--------------
SCF ITERATIONS
--------------
ITER       Energy         Delta-E        Max-DP      RMS-DP      [F,P]     Damp
               ***  Starting incremental Fock matrix formation  ***
  0  -3451.5673307555   0.000000000000 1.31802699  0.00443351  0.3915361 0.7000
  1  -3451.7878703072  -0.220539551705 1.11978835  0.00351443  0.2813807 0.7000
                               ***Turning on DIIS***
  2  -3451.8837901744  -0.095919867225 0.93785670  0.00275953  0.1995114 0.7000
  3  -3451.9459568330  -0.062166658594 0.71087951  0.00204394  0.1395132 0.7000
  4  -3451.9897440913  -0.043787258257 1.55264401  0.00453565  0.0969072 0.0000
  5  -3452.0926391675  -0.102895076259 0.07006228  0.00024090  0.0062086 0.0000
  6  -3452.0931459821  -0.000506814511 0.01790912  0.00007357  0.0041360 0.0000
  7  -3452.0933484037  -0.000202421665 0.03414012  0.00010514  0.0023891 0.0000
  8  -3452.0934297272  -0.000081323451 0.02653202  0.00007808  0.0011446 0.0000
  9  -3452.0934647228  -0.000034995629 0.01292464  0.00005332  0.0004233 0.0000
 10  -3452.0934765094  -0.000011786622 0.01507754  0.00006434  0.0001809 0.0000
 11  -3452.0934777037  -0.000001194293 0.01475148  0.00005766  0.0001214 0.0000
 12  -3452.0934782068  -0.000000503060 0.01255872  0.00004549  0.0000940 0.0000
 13  -3452.0934783270  -0.000000120265 0.01481495  0.00005922  0.0000468 0.0000
 14  -3452.0934783542  -0.000000027159 0.03610197  0.00009112  0.0000424 0.0000
                 **** Energy Check signals convergence ****

               *****************************************************
               *                     SUCCESS                       *
               *           SCF CONVERGED AFTER  15 CYCLES          *
               *****************************************************


Setting up the DFT-NL grid :

General Integration Accuracy     IntAcc      ...  4.340
Radial Grid Type                 RadialGrid  ... Gauss-Chebyshev
Angular Grid (max. acc.)         AngularGrid ... Lebedev-110
Angular grid pruning method      GridPruning ... 3 (G Style)
Weight generation scheme         WeightScheme... Becke
Basis function cutoff            BFCut       ...    1.0000e-10
Integration weight cutoff        WCut        ...    1.0000e-14
Grids for H and He will be reduced by one unit

# of grid points (after initial pruning)     ...  37972 (   0.0 sec)
# of grid points (after weights+screening)   ...  34862 (   0.0 sec)
nearest neighbour list constructed           ...    0.0 sec
Grid point re-assignment to atoms done       ...    0.0 sec
Grid point division into batches done        ...    0.0 sec
Reduced shell lists constructed in    0.1 sec

Total number of grid points                  ...    34862
Total number of batches                      ...      557
Average number of points per batch           ...       62
Average number of grid points per atom       ...     1394
Average number of shells per batch           ...   182.36 (62.24%)
Average number of basis functions per batch  ...   529.88 (64.23%)
Average number of large shells per batch     ...   142.52 (78.15%)
Average number of large basis fcns per batch ...   413.32 (78.00%)
Maximum spatial batch extension              ...   2.23,  2.32,  2.20 au
Average spatial batch extension              ...   0.07,  0.07,  0.07 au

Final grid set up in    0.1 sec

-------------------------------------------------------------------------------
                         DFT-NL dispersion correction                          
-------------------------------------------------------------------------------

SC Energy -3452.093478367 
NL    Energy 0.610812611 
SC+NL Energy -3451.482665756 
NL done in    0.4 sec
-------------------------------------------------------------------------------

----------------
TOTAL SCF ENERGY
----------------

Total Energy       :        -3451.48266576 Eh          -93919.61812 eV

Components:
Nuclear Repulsion  :         1782.40128740 Eh           48501.60480 eV
Electronic Energy  :        -5233.88395315 Eh         -142421.22292 eV
One Electron Energy:        -8357.09296666 Eh         -227408.06083 eV
Two Electron Energy:         3123.20901350 Eh           84986.83790 eV

Virial components:
Potential Energy   :        -6846.42124145 Eh         -186300.59332 eV
Kinetic Energy     :         3394.93857569 Eh           92380.97520 eV
Virial Ratio       :            2.01665541


DFT components:
N(Alpha)           :       80.000062662533 electrons
N(Beta)            :       80.000062662533 electrons
N(Total)           :      160.000125325067 electrons
E(X)               :     -146.146685180352 Eh       
E(C)               :       -6.265694180580 Eh       
NL Energy, E(C,NL) :        0.610812610681 Eh       
E(XC)              :     -151.801566750251 Eh       
DFET-embed. en.    :        0.000000000000 Eh       

---------------
SCF CONVERGENCE
---------------

  Last Energy change         ...   -1.2811e-08  Tolerance :   1.0000e-06
  Last MAX-Density change    ...    2.8543e-02  Tolerance :   1.0000e-05
  Last RMS-Density change    ...    7.9402e-05  Tolerance :   1.0000e-06
  Last DIIS Error            ...    1.6979e-05  Tolerance :   1.0000e-06

             **** THE GBW FILE WAS UPDATED (TMB20_T1.gbw) ****
             **** DENSITY FILE WAS UPDATED (TMB20_T1.scfp) ****
             **** ENERGY FILE WAS UPDATED (TMB20_T1.en.tmp) ****
             **** THE GBW FILE WAS UPDATED (TMB20_T1.gbw) ****
             **** DENSITY FILE WAS UPDATED (TMB20_T1.scfp) ****
----------------
ORBITAL ENERGIES
----------------

  NO   OCC          E(Eh)            E(eV) 
   0   2.0000    -483.447339    -13155.2709 
   1   2.0000     -62.752717     -1707.5882 
   2   2.0000     -56.438665     -1535.7742 
   3   2.0000     -56.437905     -1535.7535 
   4   2.0000     -56.437539     -1535.7435 
   5   2.0000     -19.451942      -529.3143 
   6   2.0000     -19.434220      -528.8320 
   7   2.0000     -19.388259      -527.5813 
   8   2.0000     -19.382647      -527.4286 
   9   2.0000     -19.379090      -527.3319 
  10   2.0000     -19.365570      -526.9639 
  11   2.0000     -10.562676      -287.4250 
  12   2.0000     -10.476502      -285.0801 
  13   2.0000     -10.448629      -284.3216 
  14   2.0000     -10.447655      -284.2952 
  15   2.0000     -10.446472      -284.2630 
  16   2.0000     -10.443258      -284.1755 
  17   2.0000     -10.430324      -283.8235 
  18   2.0000     -10.395913      -282.8872 
  19   2.0000     -10.376997      -282.3725 
  20   2.0000      -8.834978      -240.4120 
  21   2.0000      -6.615950      -180.0291 
  22   2.0000      -6.613295      -179.9569 
  23   2.0000      -6.612000      -179.9217 
  24   2.0000      -3.320736       -90.3618 
  25   2.0000      -2.697924       -73.4142 
  26   2.0000      -2.697389       -73.3997 
  27   2.0000      -2.696307       -73.3703 
  28   2.0000      -2.694222       -73.3135 
  29   2.0000      -2.694176       -73.3122 
  30   2.0000      -1.878448       -51.1152 
  31   2.0000      -1.872288       -50.9475 
  32   2.0000      -1.871805       -50.9344 
  33   2.0000      -1.331081       -36.2206 
  34   2.0000      -1.244957       -33.8770 
  35   2.0000      -1.244422       -33.8624 
  36   2.0000      -1.238118       -33.6909 
  37   2.0000      -1.234977       -33.6054 
  38   2.0000      -1.213557       -33.0226 
  39   2.0000      -0.976171       -26.5630 
  40   2.0000      -0.929676       -25.2978 
  41   2.0000      -0.896535       -24.3959 
  42   2.0000      -0.840528       -22.8719 
  43   2.0000      -0.804177       -21.8828 
  44   2.0000      -0.780832       -21.2475 
  45   2.0000      -0.723641       -19.6913 
  46   2.0000      -0.713839       -19.4245 
  47   2.0000      -0.693506       -18.8712 
  48   2.0000      -0.671471       -18.2716 
  49   2.0000      -0.666050       -18.1241 
  50   2.0000      -0.664778       -18.0895 
  51   2.0000      -0.654592       -17.8124 
  52   2.0000      -0.646450       -17.5908 
  53   2.0000      -0.621189       -16.9034 
  54   2.0000      -0.602349       -16.3908 
  55   2.0000      -0.593779       -16.1576 
  56   2.0000      -0.584987       -15.9183 
  57   2.0000      -0.575348       -15.6560 
  58   2.0000      -0.567036       -15.4298 
  59   2.0000      -0.563790       -15.3415 
  60   2.0000      -0.561918       -15.2906 
  61   2.0000      -0.556262       -15.1367 
  62   2.0000      -0.552126       -15.0241 
  63   2.0000      -0.542381       -14.7589 
  64   2.0000      -0.536223       -14.5914 
  65   2.0000      -0.534681       -14.5494 
  66   2.0000      -0.532360       -14.4862 
  67   2.0000      -0.527892       -14.3647 
  68   2.0000      -0.524811       -14.2808 
  69   2.0000      -0.494243       -13.4490 
  70   2.0000      -0.449883       -12.2419 
  71   2.0000      -0.441520       -12.0144 
  72   2.0000      -0.426580       -11.6078 
  73   2.0000      -0.387393       -10.5415 
  74   2.0000      -0.382100       -10.3975 
  75   2.0000      -0.366134        -9.9630 
  76   2.0000      -0.361002        -9.8234 
  77   2.0000      -0.317588        -8.6420 
  78   2.0000      -0.311275        -8.4702 
  79   2.0000      -0.304472        -8.2851 
  80   0.0000      -0.024952        -0.6790 
  81   0.0000      -0.011823        -0.3217 
  82   0.0000       0.005565         0.1514 
  83   0.0000       0.022351         0.6082 
  84   0.0000       0.032770         0.8917 
  85   0.0000       0.035436         0.9643 
  86   0.0000       0.035863         0.9759 
  87   0.0000       0.043103         1.1729 
  88   0.0000       0.045676         1.2429 
  89   0.0000       0.051808         1.4098 
  90   0.0000       0.059566         1.6209 
  91   0.0000       0.062388         1.6977 
  92   0.0000       0.066740         1.8161 
  93   0.0000       0.069943         1.9033 
  94   0.0000       0.072188         1.9643 
  95   0.0000       0.080359         2.1867 
  96   0.0000       0.081421         2.2156 
  97   0.0000       0.085455         2.3254 
  98   0.0000       0.092107         2.5063 
  99   0.0000       0.096529         2.6267 
 100   0.0000       0.098210         2.6724 
 101   0.0000       0.100938         2.7467 
 102   0.0000       0.105734         2.8772 
 103   0.0000       0.107206         2.9172 
 104   0.0000       0.112171         3.0523 
 105   0.0000       0.115325         3.1381 
 106   0.0000       0.118050         3.2123 
 107   0.0000       0.121288         3.3004 
 108   0.0000       0.124129         3.3777 
 109   0.0000       0.128127         3.4865 
 110   0.0000       0.132799         3.6136 
 111   0.0000       0.135893         3.6978 
 112   0.0000       0.137315         3.7365 
 113   0.0000       0.138439         3.7671 
 114   0.0000       0.147894         4.0244 
 115   0.0000       0.152216         4.1420 
 116   0.0000       0.160200         4.3593 
 117   0.0000       0.161508         4.3948 
 118   0.0000       0.164285         4.4704 
 119   0.0000       0.165371         4.5000 
 120   0.0000       0.168222         4.5775 
 121   0.0000       0.172918         4.7053 
 122   0.0000       0.176267         4.7965 
 123   0.0000       0.180724         4.9177 
 124   0.0000       0.188375         5.1259 
 125   0.0000       0.190845         5.1932 
 126   0.0000       0.193773         5.2728 
 127   0.0000       0.197821         5.3830 
 128   0.0000       0.202590         5.5127 
 129   0.0000       0.205093         5.5809 
 130   0.0000       0.206881         5.6295 
 131   0.0000       0.213478         5.8090 
 132   0.0000       0.215275         5.8579 
 133   0.0000       0.220888         6.0107 
 134   0.0000       0.223225         6.0743 
 135   0.0000       0.226990         6.1767 
 136   0.0000       0.231478         6.2988 
 137   0.0000       0.238804         6.4982 
 138   0.0000       0.240008         6.5310 
 139   0.0000       0.247426         6.7328 
 140   0.0000       0.252025         6.8580 
 141   0.0000       0.257310         7.0018 
 142   0.0000       0.259095         7.0503 
 143   0.0000       0.260852         7.0981 
 144   0.0000       0.263180         7.1615 
 145   0.0000       0.270866         7.3706 
 146   0.0000       0.274031         7.4568 
 147   0.0000       0.276520         7.5245 
 148   0.0000       0.280393         7.6299 
 149   0.0000       0.284251         7.7349 
 150   0.0000       0.286805         7.8044 
 151   0.0000       0.288932         7.8622 
 152   0.0000       0.293170         7.9776 
 153   0.0000       0.295234         8.0337 
 154   0.0000       0.298636         8.1263 
 155   0.0000       0.303465         8.2577 
 156   0.0000       0.304813         8.2944 
 157   0.0000       0.305443         8.3115 
 158   0.0000       0.308138         8.3849 
 159   0.0000       0.311706         8.4819 
 160   0.0000       0.315860         8.5950 
 161   0.0000       0.320122         8.7110 
 162   0.0000       0.323227         8.7955 
 163   0.0000       0.325152         8.8478 
 164   0.0000       0.328329         8.9343 
 165   0.0000       0.331701         9.0261 
 166   0.0000       0.335705         9.1350 
 167   0.0000       0.342491         9.3196 
 168   0.0000       0.347136         9.4461 
 169   0.0000       0.350421         9.5354 
 170   0.0000       0.351938         9.5767 
 171   0.0000       0.357158         9.7188 
 172   0.0000       0.361860         9.8467 
 173   0.0000       0.365503         9.9459 
 174   0.0000       0.366651         9.9771 
 175   0.0000       0.371447        10.1076 
 176   0.0000       0.375824        10.2267 
 177   0.0000       0.376922        10.2566 
 178   0.0000       0.382944        10.4204 
 179   0.0000       0.387479        10.5438 
 180   0.0000       0.392185        10.6719 
 181   0.0000       0.397067        10.8047 
 182   0.0000       0.399886        10.8815 
 183   0.0000       0.401426        10.9233 
 184   0.0000       0.405057        11.0222 
 185   0.0000       0.411630        11.2010 
 186   0.0000       0.412206        11.2167 
 187   0.0000       0.419493        11.4150 
 188   0.0000       0.419813        11.4237 
 189   0.0000       0.425550        11.5798 
 190   0.0000       0.429686        11.6924 
 191   0.0000       0.431731        11.7480 
 192   0.0000       0.438345        11.9280 
 193   0.0000       0.441514        12.0142 
 194   0.0000       0.443319        12.0633 
 195   0.0000       0.445100        12.1118 
 196   0.0000       0.447001        12.1635 
 197   0.0000       0.450048        12.2464 
 198   0.0000       0.452862        12.3230 
 199   0.0000       0.460907        12.5419 
 200   0.0000       0.466229        12.6867 
 201   0.0000       0.471072        12.8185 
 202   0.0000       0.474445        12.9103 
 203   0.0000       0.480819        13.0837 
 204   0.0000       0.482956        13.1419 
 205   0.0000       0.488853        13.3024 
 206   0.0000       0.493783        13.4365 
 207   0.0000       0.499114        13.5816 
 208   0.0000       0.504174        13.7193 
 209   0.0000       0.505073        13.7437 
 210   0.0000       0.510410        13.8890 
 211   0.0000       0.516569        14.0565 
 212   0.0000       0.519462        14.1353 
 213   0.0000       0.528919        14.3926 
 214   0.0000       0.532612        14.4931 
 215   0.0000       0.533610        14.5203 
 216   0.0000       0.539032        14.6678 
 217   0.0000       0.542324        14.7574 
 218   0.0000       0.545476        14.8432 
 219   0.0000       0.552968        15.0470 
 220   0.0000       0.554889        15.0993 
 221   0.0000       0.557839        15.1796 
 222   0.0000       0.563518        15.3341 
 223   0.0000       0.568780        15.4773 
 224   0.0000       0.570006        15.5107 
 225   0.0000       0.573532        15.6066 
 226   0.0000       0.580255        15.7895 
 227   0.0000       0.585026        15.9194 
 228   0.0000       0.590452        16.0670 
 229   0.0000       0.592168        16.1137 
 230   0.0000       0.595264        16.1979 
 231   0.0000       0.601288        16.3619 
 232   0.0000       0.605240        16.4694 
 233   0.0000       0.611586        16.6421 
 234   0.0000       0.611828        16.6487 
 235   0.0000       0.615562        16.7503 
 236   0.0000       0.620985        16.8979 
 237   0.0000       0.629450        17.1282 
 238   0.0000       0.633625        17.2418 
 239   0.0000       0.637114        17.3368 
 240   0.0000       0.639778        17.4092 
 241   0.0000       0.646494        17.5920 
 242   0.0000       0.648809        17.6550 
 243   0.0000       0.652481        17.7549 
 244   0.0000       0.653830        17.7916 
 245   0.0000       0.656407        17.8617 
 246   0.0000       0.658784        17.9264 
 247   0.0000       0.664514        18.0823 
 248   0.0000       0.666374        18.1330 
 249   0.0000       0.669713        18.2238 
 250   0.0000       0.677186        18.4272 
 251   0.0000       0.678558        18.4645 
 252   0.0000       0.680265        18.5109 
 253   0.0000       0.684697        18.6316 
 254   0.0000       0.687473        18.7071 
 255   0.0000       0.692583        18.8461 
 256   0.0000       0.694772        18.9057 
 257   0.0000       0.700646        19.0655 
 258   0.0000       0.703278        19.1372 
 259   0.0000       0.709569        19.3083 
 260   0.0000       0.711949        19.3731 
 261   0.0000       0.714197        19.4343 
 262   0.0000       0.716489        19.4966 
 263   0.0000       0.723095        19.6764 
 264   0.0000       0.731147        19.8955 
 265   0.0000       0.737158        20.0591 
 266   0.0000       0.738488        20.0953 
 267   0.0000       0.739325        20.1181 
 268   0.0000       0.745112        20.2755 
 269   0.0000       0.751093        20.4383 
 270   0.0000       0.754229        20.5236 
 271   0.0000       0.756522        20.5860 
 272   0.0000       0.763225        20.7684 
 273   0.0000       0.766980        20.8706 
 274   0.0000       0.772709        21.0265 
 275   0.0000       0.775713        21.1082 
 276   0.0000       0.782853        21.3025 
 277   0.0000       0.786346        21.3976 
 278   0.0000       0.788383        21.4530 
 279   0.0000       0.792785        21.5728 
 280   0.0000       0.794375        21.6160 
 281   0.0000       0.797043        21.6886 
 282   0.0000       0.802064        21.8253 
 283   0.0000       0.804763        21.8987 
 284   0.0000       0.809241        22.0206 
 285   0.0000       0.812275        22.1031 
 286   0.0000       0.819633        22.3034 
 287   0.0000       0.824292        22.4301 
 288   0.0000       0.828249        22.5378 
 289   0.0000       0.830868        22.6091 
 290   0.0000       0.832795        22.6615 
 291   0.0000       0.836522        22.7629 
 292   0.0000       0.850289        23.1375 
 293   0.0000       0.855298        23.2738 
 294   0.0000       0.860175        23.4065 
 295   0.0000       0.865192        23.5431 
 296   0.0000       0.871020        23.7017 
 297   0.0000       0.872500        23.7419 
 298   0.0000       0.877761        23.8851 
 299   0.0000       0.883132        24.0312 
 300   0.0000       0.886040        24.1104 
 301   0.0000       0.893200        24.3052 
 302   0.0000       0.902535        24.5592 
 303   0.0000       0.908192        24.7132 
 304   0.0000       0.911707        24.8088 
 305   0.0000       0.916056        24.9272 
 306   0.0000       0.924478        25.1563 
 307   0.0000       0.928961        25.2783 
 308   0.0000       0.930788        25.3280 
 309   0.0000       0.934283        25.4231 
 310   0.0000       0.944328        25.6965 
 311   0.0000       0.951081        25.8802 
 312   0.0000       0.955551        26.0019 
 313   0.0000       0.959696        26.1147 
 314   0.0000       0.963697        26.2235 
 315   0.0000       0.965431        26.2707 
 316   0.0000       0.982708        26.7409 
 317   0.0000       0.990298        26.9474 
 318   0.0000       0.995410        27.0865 
 319   0.0000       1.002534        27.2804 
 320   0.0000       1.004306        27.3286 
 321   0.0000       1.013063        27.5669 
 322   0.0000       1.015695        27.6385 
 323   0.0000       1.022599        27.8263 
 324   0.0000       1.024105        27.8673 
 325   0.0000       1.029226        28.0067 
 326   0.0000       1.043411        28.3926 
 327   0.0000       1.048631        28.5347 
 328   0.0000       1.057024        28.7631 
 329   0.0000       1.059763        28.8376 
 330   0.0000       1.064849        28.9760 
 331   0.0000       1.075652        29.2700 
 332   0.0000       1.085979        29.5510 
 333   0.0000       1.090038        29.6614 
 334   0.0000       1.094281        29.7769 
 335   0.0000       1.103083        30.0164 
 336   0.0000       1.109644        30.1949 
 337   0.0000       1.119309        30.4579 
 338   0.0000       1.120962        30.5029 
 339   0.0000       1.125497        30.6263 
 340   0.0000       1.132569        30.8188 
 341   0.0000       1.142970        31.1018 
 342   0.0000       1.145055        31.1585 
 343   0.0000       1.154830        31.4245 
 344   0.0000       1.158061        31.5124 
 345   0.0000       1.176561        32.0158 
 346   0.0000       1.181972        32.1631 
 347   0.0000       1.191983        32.4355 
 348   0.0000       1.194118        32.4936 
 349   0.0000       1.196251        32.5516 
 350   0.0000       1.203489        32.7486 
 351   0.0000       1.218163        33.1479 
 352   0.0000       1.223474        33.2924 
 353   0.0000       1.230274        33.4775 
 354   0.0000       1.238124        33.6911 
 355   0.0000       1.246246        33.9121 
 356   0.0000       1.249039        33.9881 
 357   0.0000       1.265600        34.4387 
 358   0.0000       1.269894        34.5556 
 359   0.0000       1.271854        34.6089 
 360   0.0000       1.282502        34.8987 
 361   0.0000       1.293968        35.2107 
 362   0.0000       1.300245        35.3815 
 363   0.0000       1.310455        35.6593 
 364   0.0000       1.316522        35.8244 
 365   0.0000       1.324299        36.0360 
 366   0.0000       1.328131        36.1403 
 367   0.0000       1.345887        36.6235 
 368   0.0000       1.353962        36.8432 
 369   0.0000       1.357242        36.9324 
 370   0.0000       1.361795        37.0563 
 371   0.0000       1.364821        37.1387 
 372   0.0000       1.372073        37.3360 
 373   0.0000       1.382241        37.6127 
 374   0.0000       1.386443        37.7270 
 375   0.0000       1.393238        37.9119 
 376   0.0000       1.398460        38.0540 
 377   0.0000       1.401817        38.1454 
 378   0.0000       1.405400        38.2429 
 379   0.0000       1.412535        38.4370 
 380   0.0000       1.418088        38.5881 
 381   0.0000       1.434089        39.0236 
 382   0.0000       1.442726        39.2586 
 383   0.0000       1.447780        39.3961 
 384   0.0000       1.456527        39.6341 
 385   0.0000       1.459662        39.7194 
 386   0.0000       1.469138        39.9773 
 387   0.0000       1.485623        40.4259 
 388   0.0000       1.495774        40.7021 
 389   0.0000       1.504867        40.9495 
 390   0.0000       1.511071        41.1183 
 391   0.0000       1.522507        41.4295 
 392   0.0000       1.526298        41.5327 
 393   0.0000       1.534785        41.7636 
 394   0.0000       1.537845        41.8469 
 395   0.0000       1.540431        41.9173 
 396   0.0000       1.550058        42.1792 
 397   0.0000       1.562969        42.5305 
 398   0.0000       1.575232        42.8643 
 399   0.0000       1.591871        43.3170 
 400   0.0000       1.599328        43.5199 
 401   0.0000       1.606914        43.7263 
 402   0.0000       1.619910        44.0800 
 403   0.0000       1.635939        44.5162 
 404   0.0000       1.644008        44.7357 
 405   0.0000       1.653380        44.9908 
 406   0.0000       1.671348        45.4797 
 407   0.0000       1.681327        45.7512 
 408   0.0000       1.684897        45.8484 
 409   0.0000       1.707759        46.4705 
 410   0.0000       1.711575        46.5743 
 411   0.0000       1.717386        46.7324 
 412   0.0000       1.721064        46.8325 
 413   0.0000       1.728697        47.0402 
 414   0.0000       1.740204        47.3534 
 415   0.0000       1.749519        47.6068 
 416   0.0000       1.760769        47.9130 
 417   0.0000       1.776561        48.3427 
 418   0.0000       1.788615        48.6707 
 419   0.0000       1.798743        48.9463 
 420   0.0000       1.807914        49.1958 
 421   0.0000       1.810871        49.2763 
 422   0.0000       1.820883        49.5488 
 423   0.0000       1.827147        49.7192 
 424   0.0000       1.837405        49.9983 
 425   0.0000       1.848219        50.2926 
 426   0.0000       1.857887        50.5557 
 427   0.0000       1.870793        50.9069 
 428   0.0000       1.875742        51.0415 
 429   0.0000       1.878250        51.1098 
 430   0.0000       1.887040        51.3490 
 431   0.0000       1.890831        51.4521 
 432   0.0000       1.897666        51.6381 
 433   0.0000       1.901025        51.7295 
 434   0.0000       1.911521        52.0151 
 435   0.0000       1.914030        52.0834 
 436   0.0000       1.921113        52.2761 
 437   0.0000       1.922357        52.3100 
 438   0.0000       1.940295        52.7981 
 439   0.0000       1.945214        52.9320 
 440   0.0000       1.954303        53.1793 
 441   0.0000       1.959638        53.3245 
 442   0.0000       1.962051        53.3901 
 443   0.0000       1.970111        53.6095 
 444   0.0000       1.982613        53.9496 
 445   0.0000       1.986822        54.0642 
 446   0.0000       1.993939        54.2578 
 447   0.0000       2.005418        54.5702 
 448   0.0000       2.014135        54.8074 
 449   0.0000       2.024493        55.0893 
 450   0.0000       2.041628        55.5555 
 451   0.0000       2.049252        55.7630 
 452   0.0000       2.054238        55.8987 
 453   0.0000       2.063724        56.1568 
 454   0.0000       2.082313        56.6626 
 455   0.0000       2.083342        56.6906 
 456   0.0000       2.088578        56.8331 
 457   0.0000       2.098521        57.1037 
 458   0.0000       2.105541        57.2947 
 459   0.0000       2.112940        57.4960 
 460   0.0000       2.116378        57.5896 
 461   0.0000       2.125930        57.8495 
 462   0.0000       2.131560        58.0027 
 463   0.0000       2.156330        58.6767 
 464   0.0000       2.163513        58.8722 
 465   0.0000       2.177273        59.2466 
 466   0.0000       2.184949        59.4555 
 467   0.0000       2.207181        60.0604 
 468   0.0000       2.215650        60.2909 
 469   0.0000       2.219334        60.3912 
 470   0.0000       2.229192        60.6594 
 471   0.0000       2.236625        60.8617 
 472   0.0000       2.260859        61.5211 
 473   0.0000       2.266323        61.6698 
 474   0.0000       2.280610        62.0586 
 475   0.0000       2.298338        62.5410 
 476   0.0000       2.304434        62.7068 
 477   0.0000       2.317548        63.0637 
 478   0.0000       2.325841        63.2894 
 479   0.0000       2.337517        63.6071 
 480   0.0000       2.354331        64.0646 
 481   0.0000       2.360115        64.2220 
 482   0.0000       2.373382        64.5830 
 483   0.0000       2.379373        64.7460 
 484   0.0000       2.391431        65.0741 
 485   0.0000       2.408075        65.5271 
 486   0.0000       2.416611        65.7593 
 487   0.0000       2.433257        66.2123 
 488   0.0000       2.451284        66.7028 
 489   0.0000       2.465716        67.0956 
 490   0.0000       2.478866        67.4534 
 491   0.0000       2.481984        67.5382 
 492   0.0000       2.497713        67.9662 
 493   0.0000       2.500510        68.0423 
 494   0.0000       2.511847        68.3508 
 495   0.0000       2.520553        68.5877 
 496   0.0000       2.530069        68.8467 
 497   0.0000       2.555618        69.5419 
 498   0.0000       2.570009        69.9335 
 499   0.0000       2.590868        70.5011 
 500   0.0000       2.605298        70.8938 
 501   0.0000       2.618784        71.2607 
 502   0.0000       2.649345        72.0923 
 503   0.0000       2.668122        72.6033 
 504   0.0000       2.674110        72.7662 
 505   0.0000       2.684262        73.0425 
 506   0.0000       2.697154        73.3933 
 507   0.0000       2.707167        73.6658 
 508   0.0000       2.723430        74.1083 
 509   0.0000       2.743676        74.6592 
 510   0.0000       2.749119        74.8073 
 511   0.0000       2.756543        75.0093 
 512   0.0000       2.765704        75.2586 
 513   0.0000       2.771608        75.4193 
 514   0.0000       2.781138        75.6786 
 515   0.0000       2.786482        75.8240 
 516   0.0000       2.796092        76.0855 
 517   0.0000       2.801633        76.2363 
 518   0.0000       2.810274        76.4714 
 519   0.0000       2.811356        76.5009 
 520   0.0000       2.816909        76.6520 
 521   0.0000       2.827455        76.9390 
 522   0.0000       2.834400        77.1279 
 523   0.0000       2.845319        77.4251 
 524   0.0000       2.854857        77.6846 
 525   0.0000       2.861321        77.8605 
 526   0.0000       2.880815        78.3910 
 527   0.0000       2.884598        78.4939 
 528   0.0000       2.898739        78.8787 
 529   0.0000       2.920034        79.4582 
 530   0.0000       2.922238        79.5181 
 531   0.0000       2.927392        79.6584 
 532   0.0000       2.933522        79.8252 
 533   0.0000       2.940986        80.0283 
 534   0.0000       2.962871        80.6238 
 535   0.0000       2.965731        80.7016 
 536   0.0000       2.982520        81.1585 
 537   0.0000       2.993467        81.4564 
 538   0.0000       2.998967        81.6060 
 539   0.0000       3.014405        82.0261 
 540   0.0000       3.023048        82.2613 
 541   0.0000       3.040141        82.7264 
 542   0.0000       3.045229        82.8649 
 543   0.0000       3.054782        83.1248 
 544   0.0000       3.059197        83.2450 
 545   0.0000       3.077745        83.7497 
 546   0.0000       3.080764        83.8318 
 547   0.0000       3.089121        84.0592 
 548   0.0000       3.091137        84.1141 
 549   0.0000       3.104647        84.4817 
 550   0.0000       3.108131        84.5765 
 551   0.0000       3.114775        84.7573 
 552   0.0000       3.116520        84.8048 
 553   0.0000       3.126143        85.0667 
 554   0.0000       3.139817        85.4388 
 555   0.0000       3.147503        85.6479 
 556   0.0000       3.155475        85.8648 
 557   0.0000       3.164587        86.1128 
 558   0.0000       3.173477        86.3547 
 559   0.0000       3.179070        86.5069 
 560   0.0000       3.184676        86.6594 
 561   0.0000       3.194908        86.9379 
 562   0.0000       3.200530        87.0909 
 563   0.0000       3.212874        87.4267 
 564   0.0000       3.217103        87.5418 
 565   0.0000       3.226900        87.8084 
 566   0.0000       3.233951        88.0003 
 567   0.0000       3.238413        88.1217 
 568   0.0000       3.259802        88.7037 
 569   0.0000       3.268485        88.9400 
 570   0.0000       3.271738        89.0285 
 571   0.0000       3.278532        89.2134 
 572   0.0000       3.282276        89.3153 
 573   0.0000       3.286161        89.4210 
 574   0.0000       3.295056        89.6630 
 575   0.0000       3.297804        89.7378 
 576   0.0000       3.307658        90.0060 
 577   0.0000       3.325115        90.4810 
 578   0.0000       3.329068        90.5886 
 579   0.0000       3.338882        90.8556 
 580   0.0000       3.340030        90.8868 
 581   0.0000       3.354014        91.2674 
 582   0.0000       3.363826        91.5343 
 583   0.0000       3.389048        92.2207 
 584   0.0000       3.395323        92.3914 
 585   0.0000       3.408042        92.7375 
 586   0.0000       3.422585        93.1333 
 587   0.0000       3.425137        93.2027 
 588   0.0000       3.437013        93.5259 
 589   0.0000       3.450984        93.9060 
 590   0.0000       3.452114        93.9368 
 591   0.0000       3.465434        94.2993 
 592   0.0000       3.481024        94.7235 
 593   0.0000       3.484318        94.8131 
 594   0.0000       3.491727        95.0147 
 595   0.0000       3.496532        95.1455 
 596   0.0000       3.499700        95.2317 
 597   0.0000       3.502336        95.3034 
 598   0.0000       3.509732        95.5047 
 599   0.0000       3.515590        95.6641 
 600   0.0000       3.530627        96.0732 
 601   0.0000       3.541075        96.3575 
 602   0.0000       3.553909        96.7068 
 603   0.0000       3.560825        96.8950 
 604   0.0000       3.573292        97.2342 
 605   0.0000       3.574936        97.2790 
 606   0.0000       3.575776        97.3018 
 607   0.0000       3.586877        97.6039 
 608   0.0000       3.591922        97.7412 
 609   0.0000       3.606828        98.1468 
 610   0.0000       3.610168        98.2377 
 611   0.0000       3.613281        98.3224 
 612   0.0000       3.622802        98.5814 
 613   0.0000       3.627129        98.6992 
 614   0.0000       3.635256        98.9203 
 615   0.0000       3.640952        99.0753 
 616   0.0000       3.649873        99.3181 
 617   0.0000       3.652716        99.3955 
 618   0.0000       3.659347        99.5759 
 619   0.0000       3.667164        99.7886 
 620   0.0000       3.687676       100.3468 
 621   0.0000       3.694900       100.5433 
 622   0.0000       3.706118       100.8486 
 623   0.0000       3.712098       101.0113 
 624   0.0000       3.734261       101.6144 
 625   0.0000       3.739089       101.7458 
 626   0.0000       3.743489       101.8655 
 627   0.0000       3.776026       102.7509 
 628   0.0000       3.794802       103.2618 
 629   0.0000       3.810711       103.6947 
 630   0.0000       3.836656       104.4007 
 631   0.0000       3.838862       104.4607 
 632   0.0000       3.849156       104.7409 
 633   0.0000       3.865709       105.1913 
 634   0.0000       3.879958       105.5790 
 635   0.0000       3.890972       105.8787 
 636   0.0000       3.904009       106.2335 
 637   0.0000       3.913438       106.4900 
 638   0.0000       3.936751       107.1244 
 639   0.0000       3.948968       107.4569 
 640   0.0000       3.972957       108.1097 
 641   0.0000       3.975036       108.1662 
 642   0.0000       3.987119       108.4950 
 643   0.0000       4.002997       108.9271 
 644   0.0000       4.024245       109.5053 
 645   0.0000       4.033428       109.7552 
 646   0.0000       4.043898       110.0401 
 647   0.0000       4.060478       110.4912 
 648   0.0000       4.069633       110.7403 
 649   0.0000       4.089054       111.2688 
 650   0.0000       4.101389       111.6045 
 651   0.0000       4.120653       112.1287 
 652   0.0000       4.129760       112.3765 
 653   0.0000       4.138534       112.6152 
 654   0.0000       4.145786       112.8126 
 655   0.0000       4.156228       113.0967 
 656   0.0000       4.158879       113.1689 
 657   0.0000       4.179306       113.7247 
 658   0.0000       4.192041       114.0712 
 659   0.0000       4.201912       114.3398 
 660   0.0000       4.224995       114.9679 
 661   0.0000       4.230239       115.1107 
 662   0.0000       4.243027       115.4586 
 663   0.0000       4.249269       115.6285 
 664   0.0000       4.267688       116.1297 
 665   0.0000       4.276477       116.3689 
 666   0.0000       4.286484       116.6412 
 667   0.0000       4.302477       117.0763 
 668   0.0000       4.308591       117.2427 
 669   0.0000       4.339700       118.0892 
 670   0.0000       4.340737       118.1175 
 671   0.0000       4.370319       118.9224 
 672   0.0000       4.392826       119.5349 
 673   0.0000       4.406755       119.9139 
 674   0.0000       4.416371       120.1756 
 675   0.0000       4.424603       120.3996 
 676   0.0000       4.435933       120.7079 
 677   0.0000       4.441799       120.8675 
 678   0.0000       4.452965       121.1713 
 679   0.0000       4.468779       121.6017 
 680   0.0000       4.489715       122.1713 
 681   0.0000       4.498489       122.4101 
 682   0.0000       4.525446       123.1436 
 683   0.0000       4.541198       123.5723 
 684   0.0000       4.562043       124.1395 
 685   0.0000       4.569961       124.3550 
 686   0.0000       4.571604       124.3997 
 687   0.0000       4.615133       125.5842 
 688   0.0000       4.638619       126.2232 
 689   0.0000       4.642065       126.3170 
 690   0.0000       4.649812       126.5278 
 691   0.0000       4.681740       127.3966 
 692   0.0000       4.686083       127.5148 
 693   0.0000       4.722159       128.4965 
 694   0.0000       4.727405       128.6392 
 695   0.0000       4.731476       128.7500 
 696   0.0000       4.771633       129.8427 
 697   0.0000       4.798143       130.5641 
 698   0.0000       4.838458       131.6611 
 699   0.0000       4.889421       133.0479 
 700   0.0000       4.903875       133.4412 
 701   0.0000       4.919648       133.8704 
 702   0.0000       4.945196       134.5656 
 703   0.0000       4.989473       135.7705 
 704   0.0000       5.002804       136.1332 
 705   0.0000       5.010294       136.3370 
 706   0.0000       5.016379       136.5026 
 707   0.0000       5.072400       138.0270 
 708   0.0000       5.090369       138.5160 
 709   0.0000       5.118270       139.2752 
 710   0.0000       5.146591       140.0459 
 711   0.0000       5.158375       140.3665 
 712   0.0000       5.179899       140.9522 
 713   0.0000       5.200497       141.5127 
 714   0.0000       5.206665       141.6806 
 715   0.0000       5.233591       142.4132 
 716   0.0000       5.234116       142.4276 
 717   0.0000       5.235987       142.4785 
 718   0.0000       5.236985       142.5056 
 719   0.0000       5.239855       142.5837 
 720   0.0000       5.241230       142.6211 
 721   0.0000       5.242960       142.6682 
 722   0.0000       5.262971       143.2127 
 723   0.0000       5.296553       144.1265 
 724   0.0000       5.305257       144.3634 
 725   0.0000       5.309930       144.4906 
 726   0.0000       5.330065       145.0385 
 727   0.0000       5.351454       145.6205 
 728   0.0000       5.359806       145.8477 
 729   0.0000       5.411180       147.2457 
 730   0.0000       5.430378       147.7681 
 731   0.0000       5.454049       148.4122 
 732   0.0000       5.459093       148.5495 
 733   0.0000       5.504049       149.7728 
 734   0.0000       5.524398       150.3265 
 735   0.0000       5.534656       150.6057 
 736   0.0000       5.616715       152.8386 
 737   0.0000       5.624807       153.0588 
 738   0.0000       5.635932       153.3615 
 739   0.0000       5.637983       153.4173 
 740   0.0000       5.638950       153.4436 
 741   0.0000       5.647459       153.6752 
 742   0.0000       5.663560       154.1133 
 743   0.0000       5.679040       154.5345 
 744   0.0000       5.691090       154.8624 
 745   0.0000       5.693627       154.9315 
 746   0.0000       5.718163       155.5991 
 747   0.0000       5.757208       156.6616 
 748   0.0000       5.808794       158.0653 
 749   0.0000       5.835477       158.7914 
 750   0.0000       5.896825       160.4608 
 751   0.0000       5.971199       162.4846 
 752   0.0000       5.987338       162.9238 
 753   0.0000       6.121941       166.5865 
 754   0.0000       6.135947       166.9676 
 755   0.0000       6.228534       169.4870 
 756   0.0000       6.279075       170.8623 
 757   0.0000       6.373236       173.4246 
 758   0.0000       6.454487       175.6355 
 759   0.0000       6.519552       177.4060 
 760   0.0000       6.555001       178.3706 
 761   0.0000       6.565863       178.6662 
 762   0.0000       6.570857       178.8021 
 763   0.0000       6.575245       178.9215 
 764   0.0000       6.578580       179.0123 
 765   0.0000       6.585029       179.1878 
 766   0.0000       6.587981       179.2681 
 767   0.0000       6.595401       179.4700 
 768   0.0000       6.596964       179.5125 
 769   0.0000       6.599384       179.5784 
 770   0.0000       6.612506       179.9354 
 771   0.0000       6.617380       180.0681 
 772   0.0000       6.631767       180.4596 
 773   0.0000       6.687653       181.9803 
 774   0.0000       6.714709       182.7165 
 775   0.0000       6.743681       183.5049 
 776   0.0000       6.760661       183.9669 
 777   0.0000       6.773961       184.3288 
 778   0.0000       6.784822       184.6244 
 779   0.0000       6.858302       186.6239 
 780   0.0000       6.875047       187.0795 
 781   0.0000       6.931377       188.6124 
 782   0.0000       6.935105       188.7138 
 783   0.0000       6.965396       189.5381 
 784   0.0000       7.011620       190.7959 
 785   0.0000       7.015780       190.9091 
 786   0.0000       7.018515       190.9835 
 787   0.0000       7.023964       191.1318 
 788   0.0000       7.028107       191.2445 
 789   0.0000       7.034815       191.4270 
 790   0.0000       7.040598       191.5844 
 791   0.0000       7.057041       192.0318 
 792   0.0000       7.186310       195.5494 
 793   0.0000       7.202963       196.0026 
 794   0.0000       7.287646       198.3069 
 795   0.0000       7.346829       199.9174 
 796   0.0000       7.351598       200.0472 
 797   0.0000       7.357539       200.2088 
 798   0.0000       7.388794       201.0593 
 799   0.0000       7.433827       202.2847 
 800   0.0000       7.495575       203.9650 
 801   0.0000       7.553378       205.5379 
 802   0.0000       7.689585       209.2442 
 803   0.0000       7.852444       213.6759 
 804   0.0000       8.266386       224.9398 
 805   0.0000      23.439218       637.8135 
 806   0.0000      23.617794       642.6728 
 807   0.0000      23.681157       644.3970 
 808   0.0000      23.724778       645.5840 
 809   0.0000      23.768109       646.7631 
 810   0.0000      23.777148       647.0091 
 811   0.0000      23.967487       652.1885 
 812   0.0000      24.061478       654.7461 
 813   0.0000      24.098730       655.7598 
 814   0.0000      44.706576      1216.5278 
 815   0.0000      44.750838      1217.7322 
 816   0.0000      44.776901      1218.4414 
 817   0.0000      44.887529      1221.4518 
 818   0.0000      44.937720      1222.8175 
 819   0.0000      45.019188      1225.0344 
 820   0.0000      49.651656      1351.0902 
 821   0.0000      50.567953      1376.0240 
 822   0.0000      50.939446      1386.1328 
 823   0.0000      68.344464      1859.7474 
 824   0.0000     512.782427     13953.5192 

                    ********************************
                    * MULLIKEN POPULATION ANALYSIS *
                    ********************************

-----------------------
MULLIKEN ATOMIC CHARGES
-----------------------
   0 Re:    0.217611
   1 C :    0.700501
   2 C :    0.434484
   3 C :    0.211565
   4 Br:   -0.558159
   5 O :   -0.455151
   6 O :   -0.425844
   7 O :   -0.449990
   8 C :   -0.330939
   9 C :    0.086327
  10 C :   -0.435247
  11 C :    1.012808
  12 O :   -0.405720
  13 O :   -0.342618
  14 C :    0.022464
  15 O :   -0.683185
  16 H :    0.292268
  17 C :   -0.651544
  18 H :    0.206588
  19 H :    0.318103
  20 H :    0.323690
  21 H :    0.116079
  22 H :    0.302291
  23 H :    0.274804
  24 H :    0.218814
Sum of atomic charges:   -0.0000000

--------------------------------
MULLIKEN REDUCED ORBITAL CHARGES
--------------------------------
  0 Res       :     2.421972  s :     2.421972
      pz      :     2.111950  p :     6.438912
      px      :     2.195595
      py      :     2.131367
      dz2     :     1.314646  d :     5.766402
      dxz     :     0.753121
      dyz     :     1.337734
      dx2y2   :     1.262514
      dxy     :     1.098387
      f0      :     0.011013  f :     0.149121
      f+1     :     0.030128
      f-1     :     0.015534
      f+2     :     0.020423
      f-2     :     0.029878
      f+3     :     0.024138
      f-3     :     0.018007
      g0      :     0.000777  g :     0.005982
      g+1     :     0.000492
      g-1     :     0.000249
      g+2     :     0.000731
      g-2     :     0.000946
      g+3     :     0.000477
      g-3     :     0.001076
      g+4     :     0.000365
      g-4     :     0.000868
  1 C s       :     3.139987  s :     3.139987
      pz      :     0.701603  p :     2.019760
      px      :     0.685340
      py      :     0.632817
      dz2     :     0.043015  d :     0.119970
      dxz     :     0.006202
      dyz     :     0.025596
      dx2y2   :     0.031750
      dxy     :     0.013408
      f0      :     0.003767  f :     0.019781
      f+1     :     0.004170
      f-1     :     0.002237
      f+2     :     0.003783
      f-2     :     0.003623
      f+3     :     0.001198
      f-3     :     0.001002
  2 C s       :     3.329996  s :     3.329996
      pz      :     0.690959  p :     2.084721
      px      :     0.767100
      py      :     0.626662
      dz2     :     0.060316  d :     0.130631
      dxz     :    -0.003136
      dyz     :     0.016659
      dx2y2   :     0.039401
      dxy     :     0.017392
      f0      :     0.002306  f :     0.020167
      f+1     :     0.004704
      f-1     :     0.001462
      f+2     :     0.003838
      f-2     :     0.003736
      f+3     :     0.002275
      f-3     :     0.001845
  3 C s       :     3.505944  s :     3.505944
      pz      :     0.639448  p :     2.130285
      px      :     0.671135
      py      :     0.819701
      dz2     :    -0.003626  d :     0.132482
      dxz     :     0.012843
      dyz     :     0.068814
      dx2y2   :     0.036006
      dxy     :     0.018445
      f0      :     0.002462  f :     0.019724
      f+1     :     0.000850
      f-1     :     0.002160
      f+2     :     0.001452
      f-2     :     0.002689
      f+3     :     0.004069
      f-3     :     0.006042
  4 Brs       :     8.044061  s :     8.044061
      pz      :     5.941486  p :    17.485679
      px      :     5.803309
      py      :     5.740883
      dz2     :     2.002927  d :    10.026213
      dxz     :     2.002525
      dyz     :     2.003602
      dx2y2   :     2.007004
      dxy     :     2.010154
      f0      :     0.000313  f :     0.002207
      f+1     :     0.000161
      f-1     :     0.000282
      f+2     :     0.000102
      f-2     :     0.000376
      f+3     :     0.000348
      f-3     :     0.000625
  5 O s       :     4.047608  s :     4.047608
      pz      :     1.523131  p :     4.360455
      px      :     1.478725
      py      :     1.358600
      dz2     :     0.002969  d :     0.045323
      dxz     :     0.004109
      dyz     :     0.012305
      dx2y2   :     0.013863
      dxy     :     0.012077
      f0      :     0.000243  f :     0.001765
      f+1     :     0.000071
      f-1     :     0.000152
      f+2     :     0.000135
      f-2     :     0.000265
      f+3     :     0.000303
      f-3     :     0.000597
  6 O s       :     4.046193  s :     4.046193
      pz      :     1.399332  p :     4.329295
      px      :     1.440819
      py      :     1.489144
      dz2     :     0.013904  d :     0.048540
      dxz     :     0.010952
      dyz     :     0.009438
      dx2y2   :     0.007025
      dxy     :     0.007221
      f0      :     0.000381  f :     0.001816
      f+1     :     0.000348
      f-1     :     0.000199
      f+2     :     0.000359
      f-2     :     0.000331
      f+3     :     0.000111
      f-3     :     0.000088
  7 O s       :     4.052391  s :     4.052391
      pz      :     1.434804  p :     4.350449
      px      :     1.418925
      py      :     1.496719
      dz2     :     0.011311  d :     0.045373
      dxz     :     0.009540
      dyz     :     0.006885
      dx2y2   :     0.008962
      dxy     :     0.008674
      f0      :     0.000203  f :     0.001777
      f+1     :     0.000428
      f-1     :     0.000123
      f+2     :     0.000339
      f-2     :     0.000323
      f+3     :     0.000207
      f-3     :     0.000154
  8 C s       :     3.559052  s :     3.559052
      pz      :     0.649278  p :     2.706050
      px      :     0.924373
      py      :     1.132399
      dz2     :     0.019390  d :     0.059117
      dxz     :     0.023180
      dyz     :    -0.000274
      dx2y2   :    -0.001641
      dxy     :     0.018462
      f0      :     0.000873  f :     0.006719
      f+1     :     0.000276
      f-1     :     0.000096
      f+2     :     0.000647
      f-2     :     0.001346
      f+3     :     0.002534
      f-3     :     0.000948
  9 C s       :     3.228102  s :     3.228102
      pz      :     1.101722  p :     2.736239
      px      :     0.679192
      py      :     0.955324
      dz2     :    -0.027273  d :    -0.055916
      dxz     :    -0.072471
      dyz     :    -0.005413
      dx2y2   :     0.024488
      dxy     :     0.024753
      f0      :     0.000370  f :     0.005247
      f+1     :     0.000464
      f-1     :     0.000140
      f+2     :     0.000585
      f-2     :     0.001006
      f+3     :     0.002078
      f-3     :     0.000603
 10 C s       :     3.358087  s :     3.358087
      pz      :     1.275706  p :     2.994708
      px      :     0.800126
      py      :     0.918876
      dz2     :     0.015506  d :     0.075780
      dxz     :     0.004885
      dyz     :     0.014168
      dx2y2   :     0.011786
      dxy     :     0.029436
      f0      :     0.000760  f :     0.006673
      f+1     :     0.001215
      f-1     :     0.000501
      f+2     :     0.000519
      f-2     :     0.000981
      f+3     :     0.000967
      f-3     :     0.001729
 11 C s       :     3.091664  s :     3.091664
      pz      :     0.636523  p :     1.794186
      px      :     0.561960
      py      :     0.595703
      dz2     :    -0.009632  d :     0.075947
      dxz     :     0.057041
      dyz     :     0.056653
      dx2y2   :    -0.029325
      dxy     :     0.001209
      f0      :     0.002836  f :     0.025395
      f+1     :     0.002092
      f-1     :     0.001477
      f+2     :     0.004126
      f-2     :     0.002072
      f+3     :     0.004722
      f-3     :     0.008070
 12 O s       :     3.905208  s :     3.905208
      pz      :     1.668059  p :     4.467650
      px      :     1.435194
      py      :     1.364397
      dz2     :     0.010137  d :     0.031143
      dxz     :    -0.000319
      dyz     :     0.008763
      dx2y2   :     0.010730
      dxy     :     0.001832
      f0      :     0.000266  f :     0.001718
      f+1     :     0.000144
      f-1     :     0.000278
      f+2     :     0.000136
      f-2     :     0.000147
      f+3     :     0.000372
      f-3     :     0.000376
 13 O s       :     3.934953  s :     3.934953
      pz      :     1.672752  p :     4.387850
      px      :     1.221350
      py      :     1.493748
      dz2     :     0.003091  d :     0.017612
      dxz     :     0.008205
      dyz     :    -0.000029
      dx2y2   :     0.012210
      dxy     :    -0.005865
      f0      :     0.000301  f :     0.002203
      f+1     :     0.000404
      f-1     :     0.000165
      f+2     :     0.000279
      f-2     :     0.000175
      f+3     :     0.000462
      f-3     :     0.000418
 14 C s       :     3.447466  s :     3.447466
      pz      :     0.720074  p :     2.289783
      px      :     0.709586
      py      :     0.860123
      dz2     :     0.043435  d :     0.224066
      dxz     :     0.029474
      dyz     :     0.014984
      dx2y2   :     0.108491
      dxy     :     0.027681
      f0      :     0.001440  f :     0.016222
      f+1     :     0.001782
      f-1     :     0.001335
      f+2     :     0.001170
      f-2     :     0.002732
      f+3     :     0.002284
      f-3     :     0.005478
 15 O s       :     4.038598  s :     4.038598
      pz      :     1.498283  p :     4.619254
      px      :     1.642391
      py      :     1.478580
      dz2     :     0.002745  d :     0.023526
      dxz     :    -0.002275
      dyz     :     0.013467
      dx2y2   :     0.005454
      dxy     :     0.004135
      f0      :     0.000177  f :     0.001807
      f+1     :     0.000103
      f-1     :     0.000189
      f+2     :     0.000099
      f-2     :     0.000343
      f+3     :     0.000435
      f-3     :     0.000460
 16 H s       :     0.626980  s :     0.626980
      pz      :     0.036367  p :     0.071901
      px      :     0.006848
      py      :     0.028686
      dz2     :     0.001054  d :     0.008851
      dxz     :     0.002380
[...]
      px      :     0.015237
      py      :     0.014076
      dz2     :     0.000192  d :     0.001484
      dxz     :     0.000307
      dyz     :     0.000142
      dx2y2   :     0.000409
      dxy     :     0.000434
 24 H s       :     0.752585  s :     0.752585
      pz      :     0.009851  p :     0.026211
      px      :     0.001780
      py      :     0.014580
      dz2     :     0.000245  d :     0.002390
      dxz     :     0.000111
      dyz     :     0.000476
      dx2y2   :     0.000846
      dxy     :     0.000712


                     *******************************
                     * LOEWDIN POPULATION ANALYSIS *
                     *******************************

----------------------
LOEWDIN ATOMIC CHARGES
----------------------
   0 Re:    0.502347
   1 C :   -0.279618
   2 C :   -0.336420
   3 C :   -0.279257
   4 Br:    0.231510
   5 O :    0.092985
   6 O :    0.118902
   7 O :    0.099208
   8 C :    0.207570
   9 C :   -0.058285
  10 C :    0.032189
  11 C :   -0.350313
  12 O :    0.315130
  13 O :    0.058349
  14 C :   -0.194922
  15 O :   -0.135817
  16 H :   -0.309609
  17 C :    0.204723
  18 H :    0.017281
  19 H :    0.021026
  20 H :    0.021465
  21 H :   -0.029181
  22 H :    0.025959
  23 H :   -0.029123
  24 H :    0.053900

-------------------------------
LOEWDIN REDUCED ORBITAL CHARGES
-------------------------------
  0 Res       :     1.949398  s :     1.949398
      pz      :     2.114247  p :     6.429390
      px      :     2.142880
      py      :     2.172263
      dz2     :     1.235892  d :     5.720889
      dxz     :     0.918459
      dyz     :     1.269942
      dx2y2   :     1.176893
      dxy     :     1.119703
      f0      :     0.029224  f :     0.373327
      f+1     :     0.072518
      f-1     :     0.040842
      f+2     :     0.054279
      f-2     :     0.069498
      f+3     :     0.065334
      f-3     :     0.041631
      g0      :     0.002956  g :     0.024650
      g+1     :     0.002143
      g-1     :     0.000937
      g+2     :     0.003141
      g-2     :     0.004230
      g+3     :     0.002118
      g-3     :     0.003946
      g+4     :     0.001670
      g-4     :     0.003507
  1 C s       :     2.891263  s :     2.891263
      pz      :     0.885016  p :     2.339107
      px      :     0.790879
      py      :     0.663212
      dz2     :     0.271990  d :     0.958874
      dxz     :     0.218524
      dyz     :     0.196676
      dx2y2   :     0.137031
      dxy     :     0.134653
      f0      :     0.016156  f :     0.090373
      f+1     :     0.020774
      f-1     :     0.010038
      f+2     :     0.016986
      f-2     :     0.017001
      f+3     :     0.004972
      f-3     :     0.004446
  2 C s       :     2.877129  s :     2.877129
      pz      :     0.815506  p :     2.358484
      px      :     0.863749
      py      :     0.679230
      dz2     :     0.259844  d :     1.009993
      dxz     :     0.214821
      dyz     :     0.159476
      dx2y2   :     0.189123
      dxy     :     0.186729
      f0      :     0.010222  f :     0.090814
      f+1     :     0.021192
      f-1     :     0.006165
      f+2     :     0.017662
      f-2     :     0.017819
      f+3     :     0.009359
      f-3     :     0.008396
  3 C s       :     2.880475  s :     2.880475
      pz      :     0.640875  p :     2.341664
      px      :     0.727708
      py      :     0.973081
      dz2     :     0.085375  d :     0.967444
      dxz     :     0.076487
      dyz     :     0.268182
      dx2y2   :     0.282740
      dxy     :     0.254660
      f0      :     0.010382  f :     0.089674
      f+1     :     0.004056
      f-1     :     0.010780
      f+2     :     0.006050
      f-2     :     0.011585
      f+3     :     0.021045
      f-3     :     0.025776
  4 Brs       :     7.573561  s :     7.573561
      pz      :     5.805709  p :    17.012860
      px      :     5.585028
      py      :     5.622122
      dz2     :     2.018163  d :    10.178383
      dxz     :     2.020925
      dyz     :     2.039526
      dx2y2   :     2.047124
      dxy     :     2.052646
      f0      :     0.000500  f :     0.003686
      f+1     :     0.000204
      f-1     :     0.000368
      f+2     :     0.000159
      f-2     :     0.000676
      f+3     :     0.000519
      f-3     :     0.001260
  5 O s       :     3.387424  s :     3.387424
      pz      :     1.370800  p :     4.313617
      px      :     1.409426
      py      :     1.533390
      dz2     :     0.026384  d :     0.199605
      dxz     :     0.009977
      dyz     :     0.037596
      dx2y2   :     0.055950
      dxy     :     0.069697
      f0      :     0.000571  f :     0.006370
      f+1     :     0.000336
      f-1     :     0.001021
      f+2     :     0.000323
      f-2     :     0.000625
      f+3     :     0.002082
      f-3     :     0.001411
  6 O s       :     3.383762  s :     3.383762
      pz      :     1.489310  p :     4.295619
      px      :     1.433622
      py      :     1.372687
      dz2     :     0.046228  d :     0.195231
      dxz     :     0.071004
      dyz     :     0.034403
      dx2y2   :     0.021180
      dxy     :     0.022415
      f0      :     0.000867  f :     0.006486
      f+1     :     0.001918
      f-1     :     0.000695
      f+2     :     0.001157
      f-2     :     0.001297
      f+3     :     0.000249
      f-3     :     0.000303
  7 O s       :     3.383646  s :     3.383646
      pz      :     1.453984  p :     4.311417
      px      :     1.471922
      py      :     1.385510
      dz2     :     0.035580  d :     0.199291
      dxz     :     0.069385
      dyz     :     0.027857
      dx2y2   :     0.033060
      dxy     :     0.033409
      f0      :     0.000685  f :     0.006437
      f+1     :     0.001500
      f-1     :     0.000380
      f+2     :     0.001327
      f-2     :     0.001423
      f+3     :     0.000499
      f-3     :     0.000621
  8 C s       :     2.749661  s :     2.749661
      pz      :     0.564084  p :     2.520990
      px      :     1.017019
      py      :     0.939886
      dz2     :     0.081940  d :     0.490062
      dxz     :     0.178075
      dyz     :     0.054507
      dx2y2   :     0.074713
      dxy     :     0.100827
      f0      :     0.005349  f :     0.031718
      f+1     :     0.003930
      f-1     :     0.001119
      f+2     :     0.002471
      f-2     :     0.005563
      f+3     :     0.004436
      f-3     :     0.008851
  9 C s       :     2.751800  s :     2.751800
      pz      :     0.943308  p :     2.702769
      px      :     0.978575
      py      :     0.780887
      dz2     :     0.107576  d :     0.568225
      dxz     :     0.112510
      dyz     :     0.060809
      dx2y2   :     0.152234
      dxy     :     0.135096
      f0      :     0.003452  f :     0.035491
      f+1     :     0.005564
      f-1     :     0.002304
      f+2     :     0.002920
      f-2     :     0.004457
      f+3     :     0.009440
      f-3     :     0.007354
 10 C s       :     2.615725  s :     2.615725
      pz      :     0.852844  p :     2.636767
      px      :     0.903336
      py      :     0.880588
      dz2     :     0.119669  d :     0.674971
      dxz     :     0.125677
      dyz     :     0.073066
      dx2y2   :     0.153701
      dxy     :     0.202858
      f0      :     0.003126  f :     0.040348
      f+1     :     0.004796
      f-1     :     0.003820
      f+2     :     0.004597
      f-2     :     0.005463
      f+3     :     0.008632
      f-3     :     0.009914
 11 C s       :     2.599263  s :     2.599263
      pz      :     0.604677  p :     2.274121
      px      :     0.792032
      py      :     0.877412
      dz2     :     0.123572  d :     1.315824
      dxz     :     0.214753
      dyz     :     0.238401
      dx2y2   :     0.389033
      dxy     :     0.350064
      f0      :     0.010829  f :     0.161106
      f+1     :     0.012388
      f-1     :     0.010819
      f+2     :     0.027712
      f-2     :     0.014935
      f+3     :     0.030289
      f-3     :     0.054133
 12 O s       :     3.120305  s :     3.120305
      pz      :     1.430559  p :     4.218874
      px      :     1.389668
      py      :     1.398647
      dz2     :     0.043931  d :     0.340107
      dxz     :     0.027648
      dyz     :     0.050435
      dx2y2   :     0.119190
      dxy     :     0.098903
      f0      :     0.000379  f :     0.005584
      f+1     :     0.000401
      f-1     :     0.000696
      f+2     :     0.000669
      f-2     :     0.000298
      f+3     :     0.001389
      f-3     :     0.001752
 13 O s       :     3.163713  s :     3.163713
      pz      :     1.477659  p :     4.245333
      px      :     1.316633
      py      :     1.451040
      dz2     :     0.054182  d :     0.525520
      dxz     :     0.089012
      dyz     :     0.072206
      dx2y2   :     0.158204
      dxy     :     0.151916
      f0      :     0.000668  f :     0.007085
      f+1     :     0.000862
      f-1     :     0.000314
      f+2     :     0.000835
      f-2     :     0.000709
      f+3     :     0.001522
      f-3     :     0.002175
 14 C s       :     2.652775  s :     2.652775
      pz      :     0.630196  p :     2.385841
      px      :     0.866626
      py      :     0.889019
      dz2     :     0.157340  d :     1.053763
      dxz     :     0.177530
      dyz     :     0.130079
      dx2y2   :     0.331459
      dxy     :     0.257356
      f0      :     0.008240  f :     0.102542
      f+1     :     0.007319
      f-1     :     0.009539
      f+2     :     0.008287
      f-2     :     0.017494
      f+3     :     0.017539
      f-3     :     0.034124
 15 O s       :     3.267809  s :     3.267809
      pz      :     1.384653  p :     4.418341
      px      :     1.503437
      py      :     1.530250
      dz2     :     0.073227  d :     0.443745
      dxz     :     0.063288
      dyz     :     0.066794
      dx2y2   :     0.132065
      dxy     :     0.108370
      f0      :     0.000492  f :     0.005922
      f+1     :     0.000389
      f-1     :     0.000659
      f+2     :     0.000289
      f-2     :     0.000897
      f+3     :     0.001409
      f-3     :     0.001788
 16 H s       :     0.535086  s :     0.535086
      pz      :     0.133146  p :     0.690564
      px      :     0.370408
      py      :     0.187010
      dz2     :     0.008422  d :     0.083958
      dxz     :     0.023545
      dyz     :     0.001561
      dx2y2   :     0.027629
      dxy     :     0.022801
 17 C s       :     2.631424  s :     2.631424
      pz      :     0.934923  p :     2.542089
      px      :     0.833814
      py      :     0.773353
      dz2     :     0.072911  d :     0.561847
      dxz     :     0.060116
      dyz     :     0.156961
      dx2y2   :     0.143929
      dxy     :     0.127930
      f0      :     0.005963  f :     0.059917
      f+1     :     0.005708
      f-1     :     0.008780
      f+2     :     0.003519
      f-2     :     0.009464
      f+3     :     0.013605
      f-3     :     0.012878
 18 H s       :     0.698235  s :     0.698235
      pz      :     0.078835  p :     0.254477
      px      :     0.113132
      py      :     0.062510
      dz2     :     0.003681  d :     0.030007
      dxz     :     0.008535
      dyz     :     0.002174
      dx2y2   :     0.007907
      dxy     :     0.007710
 19 H s       :     0.687577  s :     0.687577
      pz      :     0.116253  p :     0.261488
      px      :     0.071061
      py      :     0.074174
      dz2     :     0.008817  d :     0.029909
      dxz     :     0.006445
      dyz     :     0.009173
      dx2y2   :     0.002493
      dxy     :     0.002982
 20 H s       :     0.684944  s :     0.684944
      pz      :     0.107652  p :     0.263601
      px      :     0.080116
      py      :     0.075834
      dz2     :     0.009037  d :     0.029989
      dxz     :     0.005092
      dyz     :     0.007862
      dx2y2   :     0.003476
      dxy     :     0.004524
 21 H s       :     0.665874  s :     0.665874
      pz      :     0.143015  p :     0.331227
      px      :     0.107069
      py      :     0.081143
      dz2     :     0.012374  d :     0.032080
      dxz     :     0.008068
      dyz     :     0.005389
      dx2y2   :     0.002987
      dxy     :     0.003262
 22 H s       :     0.672019  s :     0.672019
      pz      :     0.082409  p :     0.270177
      px      :     0.085529
      py      :     0.102239
      dz2     :     0.003093  d :     0.031845
      dxz     :     0.003076
      dyz     :     0.007595
      dx2y2   :     0.008931
      dxy     :     0.009150
 23 H s       :     0.704753  s :     0.704753
      pz      :     0.077827  p :     0.294322
      px      :     0.114965
      py      :     0.101530
      dz2     :     0.003289  d :     0.030048
      dxz     :     0.006558
      dyz     :     0.003381
      dx2y2   :     0.008606
      dxy     :     0.008214
 24 H s       :     0.686859  s :     0.686859
      pz      :     0.049279  p :     0.232255
      px      :     0.069967
      py      :     0.113008
      dz2     :     0.003185  d :     0.026987
      dxz     :     0.001231
      dyz     :     0.005281
      dx2y2   :     0.008922
      dxy     :     0.008367


                      *****************************
                      * MAYER POPULATION ANALYSIS *
                      *****************************

  NA   - Mulliken gross atomic population
  ZA   - Total nuclear charge
  QA   - Mulliken gross atomic charge
  VA   - Mayer's total valence
  BVA  - Mayer's bonded valence
  FA   - Mayer's free valence

  ATOM       NA         ZA         QA         VA         BVA        FA
  0 Re    14.7824    15.0000     0.2176     5.5471     5.5471    -0.0000
  1 C      5.2995     6.0000     0.7005     3.1564     3.1564    -0.0000
  2 C      5.5655     6.0000     0.4345     3.2484     3.2484    -0.0000
  3 C      5.7884     6.0000     0.2116     3.1949     3.1949    -0.0000
  4 Br    35.5582    35.0000    -0.5582     0.8171     0.8171    -0.0000
  5 O      8.4552     8.0000    -0.4552     2.0261     2.0261    -0.0000
  6 O      8.4258     8.0000    -0.4258     2.0977     2.0977    -0.0000
  7 O      8.4500     8.0000    -0.4500     2.0254     2.0254     0.0000
  8 C      6.3309     6.0000    -0.3309     3.5651     3.5651     0.0000
  9 C      5.9137     6.0000     0.0863     3.3185     3.3185    -0.0000
 10 C      6.4352     6.0000    -0.4352     2.9680     2.9680    -0.0000
 11 C      4.9872     6.0000     1.0128     2.7556     2.7556    -0.0000
 12 O      8.4057     8.0000    -0.4057     1.7764     1.7764    -0.0000
 13 O      8.3426     8.0000    -0.3426     1.7390     1.7390     0.0000
 14 C      5.9775     6.0000     0.0225     3.6374     3.6374    -0.0000
 15 O      8.6832     8.0000    -0.6832     1.7842     1.7842    -0.0000
 16 H      0.7077     1.0000     0.2923     0.9718     0.9718    -0.0000
 17 C      6.6515     6.0000    -0.6515     3.5250     3.5250    -0.0000
 18 H      0.7934     1.0000     0.2066     1.0261     1.0261     0.0000
 19 H      0.6819     1.0000     0.3181     0.9344     0.9344    -0.0000
 20 H      0.6763     1.0000     0.3237     0.9283     0.9283    -0.0000
 21 H      0.8839     1.0000     0.1161     1.1062     1.1062    -0.0000
 22 H      0.6977     1.0000     0.3023     0.9591     0.9591    -0.0000
 23 H      0.7252     1.0000     0.2748     0.9236     0.9236     0.0000
 24 H      0.7812     1.0000     0.2188     1.0183     1.0183    -0.0000

  Mayer bond orders larger than 0.100000
B(  0-Re,  1-C ) :   1.3200 B(  0-Re,  2-C ) :   1.4296 B(  0-Re,  3-C ) :   1.3834 
B(  0-Re,  4-Br) :   0.4718 B(  0-Re,  9-C ) :   0.4454 B(  0-Re, 15-O ) :   0.2803 
B(  1-C ,  2-C ) :  -0.1553 B(  1-C ,  6-O ) :   1.9595 B(  1-C ,  8-C ) :   0.1257 
B(  1-C ,  9-C ) :  -0.1296 B(  2-C ,  7-O ) :   1.9043 B(  3-C ,  5-O ) :   1.9089 
B(  4-Br, 16-H ) :   0.1937 B(  8-C ,  9-C ) :   2.0806 B(  8-C , 10-C ) :   0.1424 
B(  8-C , 14-C ) :   0.1482 B(  8-C , 21-H ) :   0.1097 B(  8-C , 23-H ) :   0.9399 
B(  9-C , 10-C ) :  -0.1219 B(  9-C , 11-C ) :   0.1026 B(  9-C , 21-H ) :   0.9595 
B( 10-C , 11-C ) :   0.8190 B( 10-C , 14-C ) :   1.0290 B( 10-C , 22-H ) :   1.0679 
B( 11-C , 12-O ) :   0.9934 B( 11-C , 13-O ) :   0.8516 B( 12-O , 16-H ) :   0.7550 
B( 13-O , 17-C ) :   0.7769 B( 14-C , 15-O ) :   1.3594 B( 14-C , 24-H ) :   1.0535 
B( 17-C , 18-H ) :   1.0066 B( 17-C , 19-H ) :   0.8999 B( 17-C , 20-H ) :   0.8924 


-------
TIMINGS
-------

Total SCF time: 0 days 0 hours 13 min 58 sec 

Total time                  ....     838.936 sec
Sum of individual times     ....     837.396 sec  ( 99.8%)

Fock matrix formation       ....     828.708 sec  ( 98.8%)
  XC integration            ....      11.767 sec  (  1.4% of F)
    Basis function eval.    ....       1.189 sec  ( 10.1% of XC)
    Density eval.           ....       4.012 sec  ( 34.1% of XC)
    XC-Functional eval.     ....       0.123 sec  (  1.0% of XC)
    XC-Potential eval.      ....       5.053 sec  ( 42.9% of XC)
Diagonalization             ....       3.217 sec  (  0.4%)
Density matrix formation    ....       0.122 sec  (  0.0%)
Population analysis         ....       0.148 sec  (  0.0%)
Initial guess               ....       2.352 sec  (  0.3%)
Orbital Transformation      ....       0.000 sec  (  0.0%)
Orbital Orthonormalization  ....       0.000 sec  (  0.0%)
DIIS solution               ....       1.914 sec  (  0.2%)
Grid generation             ....       0.934 sec  (  0.1%)

-------------------------   --------------------
FINAL SINGLE POINT ENERGY     -3451.482665756327
-------------------------   --------------------


                            ***************************************
                            *     ORCA property calculations      *
                            ***************************************

                                    ---------------------
                                    Active property flags
                                    ---------------------
   (+) Dipole Moment


------------------------------------------------------------------------------
                       ORCA ELECTRIC PROPERTIES CALCULATION
------------------------------------------------------------------------------

Dipole Moment Calculation                       ... on
Quadrupole Moment Calculation                   ... off
Polarizability Calculation                      ... off
GBWName                                         ... TMB20_T1.gbw
Electron density file                           ... TMB20_T1.scfp
The origin for moment calculation is the CENTER OF MASS  = ( 0.241899, -0.077842 -0.007808)

-------------
DIPOLE MOMENT
-------------
                                X             Y             Z
Electronic contribution:    156.42522       7.30690       1.59139
Nuclear contribution   :   -160.68759      -5.62073      -0.99353
                        -----------------------------------------
Total Dipole Moment    :     -4.26238       1.68616       0.59785
                        -----------------------------------------
Magnitude (a.u.)       :      4.62260
Magnitude (Debye)      :     11.74971



--------------------
Rotational spectrum 
--------------------
 
Rotational constants in cm-1:     0.016566     0.007303     0.006214 
Rotational constants in MHz :   496.645586   218.925333   186.291690 

 Dipole components along the rotational axes: 
x,y,z [a.u.] :     4.239703     1.731783     0.627907 
x,y,z [Debye]:    10.776469     4.401842     1.596014 

 

Timings for individual modules:

Sum of individual times         ...      843.060 sec (=  14.051 min)
GTO integral calculation        ...        3.725 sec (=   0.062 min)   0.4 %
SCF iterations                  ...      839.336 sec (=  13.989 min)  99.6 %
                             ****ORCA TERMINATED NORMALLY****
TOTAL RUN TIME: 0 days 0 hours 14 minutes 3 seconds 687 msec
