
                                 *****************
                                 * O   R   C   A *
                                 *****************

           --- An Ab Initio, DFT and Semiempirical electronic structure package ---

                  #######################################################
                  #                        -***-                        #
                  #          Department of theory and spectroscopy      #
                  #               Directorship: Frank Neese             #
                  #        Max Planck Institute fuer Kohlenforschung    #
                  #                Kaiser Wilhelm Platz 1               #
                  #                 D-45470 Muelheim/Ruhr               #
                  #                      Germany                        #
                  #                                                     #
                  #                  All rights reserved                #
                  #                        -***-                        #
                  #######################################################


                         Program Version 4.2.0 -  RELEASE  -


 With contributions from (in alphabetic order):
   Daniel Aravena         : Magnetic Suceptibility
   Michael Atanasov       : Ab Initio Ligand Field Theory (pilot matlab implementation)
   Alexander A. Auer      : GIAO ZORA, VPT2
   Ute Becker             : Parallelization
   Giovanni Bistoni       : ED, misc. LED, open-shell LED, HFLED
   Martin Brehm           : Molecular dynamics
   Dmytro Bykov           : SCF Hessian
   Vijay G. Chilkuri      : MRCI spin determinant printing, contributions to CSF-ICE
   Dipayan Datta          : RHF DLPNO-CCSD density
   Achintya Kumar Dutta   : EOM-CC, STEOM-CC
   Dmitry Ganyushin       : Spin-Orbit,Spin-Spin,Magnetic field MRCI
   Miquel Garcia          : C-PCM Hessian, Gaussian charge scheme
   Yang Guo               : DLPNO-NEVPT2, CIM, IAO-localization
   Andreas Hansen         : Spin unrestricted coupled pair/coupled cluster methods
   Benjamin Helmich-Paris : CASSCF linear response (MC-RPA)
   Lee Huntington         : MR-EOM, pCC
   Robert Izsak           : Overlap fitted RIJCOSX, COSX-SCS-MP3, EOM
   Christian Kollmar      : KDIIS, OOCD, Brueckner-CCSD(T), CCSD density
   Simone Kossmann        : Meta GGA functionals, TD-DFT gradient, OOMP2, MP2 Hessian
   Martin Krupicka        : AUTO-CI
   Lucas Lang             : DCDCAS
   Dagmar Lenk            : GEPOL surface, SMD
   Dimitrios Liakos       : Extrapolation schemes; Compound Job, initial MDCI parallelization
   Dimitrios Manganas     : Further ROCIS development; embedding schemes
   Dimitrios Pantazis     : SARC Basis sets
   Taras Petrenko         : DFT Hessian,TD-DFT gradient, ASA, ECA, R-Raman, ABS, FL, XAS/XES, NRVS
   Peter Pinski           : DLPNO-MP2, DLPNO-MP2 Gradient
   Christoph Reimann      : Effective Core Potentials
   Marius Retegan         : Local ZFS, SOC
   Christoph Riplinger    : Optimizer, TS searches, QM/MM, DLPNO-CCSD(T), (RO)-DLPNO pert. Triples
   Tobias Risthaus        : Range-separated hybrids, TD-DFT gradient, RPA, STAB
   Michael Roemelt        : Original ROCIS implementation
   Masaaki Saitow         : Open-shell DLPNO-CCSD energy and density
   Barbara Sandhoefer     : DKH picture change effects
   Avijit Sen             : IP-ROCIS
   Kantharuban Sivalingam : CASSCF convergence, NEVPT2, FIC-MRCI
   Bernardo de Souza      : ESD, SOC TD-DFT
   Georgi Stoychev        : AutoAux, RI-MP2 NMR
   Willem Van den Heuvel  : Paramagnetic NMR
   Boris Wezisla          : Elementary symmetry handling
   Frank Wennmohs         : Technical directorship


 We gratefully acknowledge several colleagues who have allowed us to
 interface, adapt or use parts of their codes:
   Stefan Grimme, W. Hujo, H. Kruse,             : VdW corrections, initial TS optimization,
                  C. Bannwarth                     DFT functionals, gCP, sTDA/sTD-DF
   Ed Valeev, F. Pavosevic, A. Kumar             : LibInt (2-el integral package), F12 methods
   Garnet Chan, S. Sharma, J. Yang, R. Olivares  : DMRG
   Ulf Ekstrom                                   : XCFun DFT Library
   Mihaly Kallay                                 : mrcc  (arbitrary order and MRCC methods)
   Andreas Klamt, Michael Diedenhofen            : otool_cosmo (COSMO solvation model)
   Jiri Pittner, Ondrej Demel                    : Mk-CCSD
   Frank Weinhold                                : gennbo (NPA and NBO analysis)
   Christopher J. Cramer and Donald G. Truhlar   : smd solvation model
   Lars Goerigk                                  : TD-DFT with DH, B97 family of functionals
   V. Asgeirsson, H. Jonsson                     : NEB implementation
   FAccTs GmbH                                   : IRC, NEB, NEB-TS, Multilevel, MM, QM/MM, CI optimization
   S Lehtola, MJT Oliveira, MAL Marques          : LibXC Library


 Your calculation uses the libint2 library for the computation of 2-el integrals
 For citations please refer to: http://libint.valeyev.net

 Your ORCA version has been built with support for libXC version: 4.2.3
 For citations please refer to: https://tddft.org/programs/libxc/

 This ORCA versions uses:
   CBLAS   interface :  Fast vector & matrix operations
   LAPACKE interface :  Fast linear algebra routines
   SCALAPACK package :  Parallel linear algebra routines


Your calculation utilizes the DFT-NL dispersion correction.
Cite in your paper:
Vydrov, O. A.; Van Voorhis, T. J. Chem. Phys. 2010, 133, 244103
Hujo, W.; Grimme, S. J. Chem. Theory Comput. 2011, 7, 3866 
   

----- Orbital basis set information -----
Your calculation utilizes the basis: def2-TZVPPD
   F. Weigend and R. Ahlrichs, Phys. Chem. Chem. Phys. 7, 3297 (2005).
   D. Rappoport and F. Furche, J. Chem. Phys. 133 134105 (2010).

----- AuxJK basis set information -----
Your calculation utilizes the auxiliary basis: def2/JK
   H-Ba, Hf-Rn: F. Weigend, J. Comput. Chem. 29, 167 (2008).

cite the ECPs for Au [Def2-ECP] as follows:
Ce-Yb(ecp-28): M. Dolg, H. Stoll, H.Preuss, J. Chem. Phys., 1989, 90, 1730-1734.
Y-Cd(ecp-28), Hf-Hg(ecp-46): D. Andrae,U. Haeussermann, M. Dolg, H. Stoll, H. Preuss, Theor. Chim. Acta, 1990, 77, 123-141.
In-Sb(ecp-28), Tl-Bi(ecp-46): B. Metz, H. Stoll, M. Dolg, J. Chem. Phys., 2000, 113, 2563-2569.
Te-Xe(ecp-28), Po-Rn(ecp-46): K. A. Peterson, D. Figgen, E. Goll, H. Stoll, M. Dolg, J. Chem. Phys., 2003, 119, 11113-11123.
Rb(ecp-28), Cs(ecp-46): T. Leininger, A. Nicklass, W. Kuechle, H. Stoll, M. Dolg, A. Bergner, Chem. Phys. Lett., 1996, 255, 274-280.
Sr(ecp-28), Ba(ecp-46): M. Kaupp, P. V. Schleyer, H. Stoll and H. Preuss, J. Chem. Phys., 1991, 94, 1360-1366.
La(ecp-46): M. Dolg, H. Stoll, A. Savin, H. Preuss, Theor. Chim. Acta, 1989, 75, 173-194.
Lu(ecp-28): X. Cao, M. Dolg, J. Chem. Phys., 2001, 115, 7348-7355.

ECP parameters for Au [Def2-ECP] have been obtained from:
TURBOMOLE (7.0.2)

================================================================================
                                        WARNINGS
                       Please study these warnings very carefully!
================================================================================


INFO   : the flag for use of LIBINT has been found!

================================================================================
                                       INPUT FILE
================================================================================
NAME = TMB28_C1.in
|  1> #
|  2> # TMB28_C1 wB97M-V/Def2-TZVPPD
|  3> #
|  4> ! wb97m-v def2-tzvppd def2/jk grid4 nofinalgrid
|  5> 
|  6> *xyz 0 1
|  7> C       -0.405710    1.676464   -0.132905 
|  8> C       -0.911585    0.669613    0.356254 
|  9> C       -0.058307    2.983711   -0.650101 
| 10> H       -0.949750    3.612259   -0.580916 
| 11> H        0.745323    3.420879   -0.056180 
| 12> H        0.255303    2.923577   -1.693087 
| 13> C       -1.922079   -0.256189    0.903797 
| 14> O       -2.980737   -0.448274   -0.040247 
| 15> C       -3.644467    0.620195   -0.535863 
| 16> O       -3.419291    1.755394   -0.218963 
| 17> C       -1.315036   -1.659397    1.187254 
| 18> O       -0.292489   -1.714090    1.813533 
| 19> C       -2.070337   -2.858032    0.718520 
| 20> H       -2.050973   -2.878590   -0.373534 
| 21> H       -1.593281   -3.749478    1.117849 
| 22> H       -3.118661   -2.810283    1.017394 
| 23> C       -4.664667    0.177679   -1.534856 
| 24> H       -5.268795    1.028888   -1.835351 
| 25> H       -4.153929   -0.239550   -2.404894 
| 26> H       -5.293840   -0.608504   -1.117133 
| 27> C       -2.442836    0.266886    2.244835 
| 28> H       -3.205737   -0.415249    2.624458 
| 29> H       -1.614369    0.303689    2.950542 
| 30> H       -2.869838    1.259004    2.124200 
| 31> Au       1.189623    0.069390   -0.174295 
| 32> Cl       0.186320   -1.092349   -1.885264 
| 33> Cl       3.146088   -1.001725   -0.550079 
| 34> Cl       2.155158    1.282412    1.507095 
| 35> *
| 36> 
| 37> %maxcore 5000
| 38> 
| 39> %pal
| 40> nprocs = 24
| 41> end
| 42> 
| 43> 
| 44>                          ****END OF INPUT****
================================================================================

                       ****************************
                       * Single Point Calculation *
                       ****************************

---------------------------------
CARTESIAN COORDINATES (ANGSTROEM)
---------------------------------
  C     -0.405710    1.676464   -0.132905
  C     -0.911585    0.669613    0.356254
  C     -0.058307    2.983711   -0.650101
  H     -0.949750    3.612259   -0.580916
  H      0.745323    3.420879   -0.056180
  H      0.255303    2.923577   -1.693087
  C     -1.922079   -0.256189    0.903797
  O     -2.980737   -0.448274   -0.040247
  C     -3.644467    0.620195   -0.535863
  O     -3.419291    1.755394   -0.218963
  C     -1.315036   -1.659397    1.187254
  O     -0.292489   -1.714090    1.813533
  C     -2.070337   -2.858032    0.718520
  H     -2.050973   -2.878590   -0.373534
  H     -1.593281   -3.749478    1.117849
  H     -3.118661   -2.810283    1.017394
  C     -4.664667    0.177679   -1.534856
  H     -5.268795    1.028888   -1.835351
  H     -4.153929   -0.239550   -2.404894
  H     -5.293840   -0.608504   -1.117133
  C     -2.442836    0.266886    2.244835
  H     -3.205737   -0.415249    2.624458
  H     -1.614369    0.303689    2.950542
  H     -2.869838    1.259004    2.124200
  Au     1.189623    0.069390   -0.174295
  Cl     0.186320   -1.092349   -1.885264
  Cl     3.146088   -1.001725   -0.550079
  Cl     2.155158    1.282412    1.507095

----------------------------
CARTESIAN COORDINATES (A.U.)
----------------------------
  NO LB      ZA    FRAG     MASS         X           Y           Z
   0 C     6.0000    0    12.011   -0.766681    3.168058   -0.251154
   1 C     6.0000    0    12.011   -1.722646    1.265385    0.673222
   2 C     6.0000    0    12.011   -0.110184    5.638397   -1.228513
   3 H     1.0000    0     1.008   -1.794767    6.826180   -1.097772
   4 H     1.0000    0     1.008    1.408456    6.464524   -0.106165
   5 H     1.0000    0     1.008    0.482453    5.524760   -3.199471
   6 C     6.0000    0    12.011   -3.632203   -0.484127    1.707929
   7 O     8.0000    0    15.999   -5.632777   -0.847115   -0.076056
   8 C     6.0000    0    12.011   -6.887045    1.171999   -1.012634
   9 O     8.0000    0    15.999   -6.461524    3.317214   -0.413780
  10 C     6.0000    0    12.011   -2.485058   -3.135806    2.243585
  11 O     8.0000    0    15.999   -0.552724   -3.239161    3.427081
  12 C     6.0000    0    12.011   -3.912370   -5.400898    1.357806
  13 H     1.0000    0     1.008   -3.875777   -5.439747   -0.705877
  14 H     1.0000    0     1.008   -3.010865   -7.085487    2.112428
  15 H     1.0000    0     1.008   -5.893415   -5.310665    1.922596
  16 C     6.0000    0    12.011   -8.814943    0.335765   -2.900457
  17 H     1.0000    0     1.008   -9.956580    1.944317   -3.468311
  18 H     1.0000    0     1.008   -7.849788   -0.452684   -4.544591
  19 H     1.0000    0     1.008  -10.003908   -1.149906   -2.111075
  20 C     6.0000    0    12.011   -4.616291    0.504341    4.242123
  21 H     1.0000    0     1.008   -6.057965   -0.784707    4.959507
  22 H     1.0000    0     1.008   -3.050715    0.573889    5.575716
  23 H     1.0000    0     1.008   -5.423208    2.379173    4.014156
  24 Au   19.0000*   0   196.966    2.248062    0.131128   -0.329370
  25 Cl   17.0000    0    35.453    0.352094   -2.064240   -3.562633
  26 Cl   17.0000    0    35.453    5.945245   -1.892986   -1.039499
  27 Cl   17.0000    0    35.453    4.072658    2.423407    2.847997
* core charge reduced due to ECP

--------------------------------
INTERNAL COORDINATES (ANGSTROEM)
--------------------------------
 C      0   0   0     0.000000000000     0.00000000     0.00000000
 C      1   0   0     1.228387145450     0.00000000     0.00000000
 C      1   2   0     1.448128193854   168.79214473     0.00000000
 H      3   1   2     1.092945458281   107.50989515   355.76168110
 H      3   1   2     1.090724159155   110.12638787   115.15683959
 H      3   1   2     1.090773636577   111.14368651   236.46346863
 C      2   1   3     1.475808525551   160.71730875    11.73944301
 O      7   2   1     1.431388305850   110.23666799    55.71230314
 C      8   7   2     1.351961070563   119.92204441   305.15015094
 O      9   8   7     1.199919418368   123.96850747   358.81169031
 C      7   2   1     1.554941081187   111.49568140   174.06677513
 O     11   7   2     1.200341233691   117.95651424    49.57770823
 C     11   7   2     1.492285839436   118.03352224   226.85059581
 H     13  11   7     1.092419120473   108.67161408    68.32903860
 H     13  11   7     1.087070397119   108.73407306   188.19966135
 H     13  11   7     1.091141074221   111.41312702   310.73358940
 C      9   8   7     1.494863025265   110.24813349   177.90249355
 H     17   9   8     1.086197333402   109.41925892   173.27338190
 H     17   9   8     1.091741482462   109.05232332   293.42365153
 H     17   9   8     1.090153603006   110.56645034    51.34721503
 C      7   2   1     1.530744337281   110.09668529   291.85636325
 H     21   7   2     1.091530904810   109.20285917   178.63424783
 H     21   7   2     1.088914322041   108.69227279   297.57632816
 H     21   7   2     1.086821805612   110.38676078    58.15058517
 Au     2   1   3     2.248738524238    74.93138353   182.22294640
 Cl    25   2   1     2.298623356031    84.41462757   253.54034085
 Cl    25   2   1     2.261914289735   166.85712050   184.30645497
 Cl    25   2   1     2.287083850848    94.55729635    72.14220312

---------------------------
INTERNAL COORDINATES (A.U.)
---------------------------
 C      0   0   0     0.000000000000     0.00000000     0.00000000
 C      1   0   0     2.321315291330     0.00000000     0.00000000
 C      1   2   0     2.736565693194   168.79214473     0.00000000
 H      3   1   2     2.065367595465   107.50989515   355.76168110
 H      3   1   2     2.061169948455   110.12638787   115.15683959
 H      3   1   2     2.061263447232   111.14368651   236.46346863
 C      2   1   3     2.788873939398   160.71730875    11.73944301
 O      7   2   1     2.704931889355   110.23666799    55.71230314
 C      8   7   2     2.554836167086   119.92204441   305.15015094
 O      9   8   7     2.267519083490   123.96850747   358.81169031
 C      7   2   1     2.938412797826   111.49568140   174.06677513
 O     11   7   2     2.268316198929   117.95651424    49.57770823
 C     11   7   2     2.820011550063   118.03352224   226.85059581
 H     13  11   7     2.064372961154   108.67161408    68.32903860
 H     13  11   7     2.054265338848   108.73407306   188.19966135
 H     13  11   7     2.061957803751   111.41312702   310.73358940
 C      9   8   7     2.824881725476   110.24813349   177.90249355
 H     17   9   8     2.052615487526   109.41925892   173.27338190
 H     17   9   8     2.063092410895   109.05232332   293.42365153
 H     17   9   8     2.060091753589   110.56645034    51.34721503
 C      7   2   1     2.892687578512   110.09668529   291.85636325
 H     21   7   2     2.062694476802   109.20285917   178.63424783
 H     21   7   2     2.057749851963   108.69227279   297.57632816
 H     21   7   2     2.053795568980   110.38676078    58.15058517
 Au     2   1   3     4.249499957609    74.93138353   182.22294640
 Cl    25   2   1     4.343768627933    84.41462757   253.54034085
 Cl    25   2   1     4.274398546002   166.85712050   184.30645497
 Cl    25   2   1     4.321962123416    94.55729635    72.14220312

---------------------
BASIS SET INFORMATION
---------------------
There are 5 groups of distinct atoms

 Group   1 Type C   : 12s6p3d1f contracted to 6s3p3d1f pattern {621111/411/111/1}
 Group   2 Type H   : 5s3p1d contracted to 3s3p1d pattern {311/111/1}
 Group   3 Type O   : 12s7p3d1f contracted to 6s4p3d1f pattern {621111/4111/111/1}
 Group   4 Type Au  : 8s8p6d2f1g contracted to 6s5p3d2f1g pattern {311111/41111/411/11/1}
 Group   5 Type Cl  : 15s10p4d1f contracted to 6s6p4d1f pattern {732111/511111/1111/1}

Atom   0C    basis set group =>   1
Atom   1C    basis set group =>   1
Atom   2C    basis set group =>   1
Atom   3H    basis set group =>   2
Atom   4H    basis set group =>   2
Atom   5H    basis set group =>   2
Atom   6C    basis set group =>   1
Atom   7O    basis set group =>   3
Atom   8C    basis set group =>   1
Atom   9O    basis set group =>   3
Atom  10C    basis set group =>   1
Atom  11O    basis set group =>   3
Atom  12C    basis set group =>   1
Atom  13H    basis set group =>   2
Atom  14H    basis set group =>   2
Atom  15H    basis set group =>   2
Atom  16C    basis set group =>   1
Atom  17H    basis set group =>   2
Atom  18H    basis set group =>   2
Atom  19H    basis set group =>   2
Atom  20C    basis set group =>   1
Atom  21H    basis set group =>   2
Atom  22H    basis set group =>   2
Atom  23H    basis set group =>   2
Atom  24Au   basis set group =>   4
Atom  25Cl   basis set group =>   5
Atom  26Cl   basis set group =>   5
Atom  27Cl   basis set group =>   5
----------------------------------
AUXILIARY/JK BASIS SET INFORMATION
----------------------------------
There are 5 groups of distinct atoms

 Group   1 Type C   : 14s10p6d2f1g contracted to 10s8p5d1f1g pattern {5111111111/31111111/21111/2/1}
 Group   2 Type H   : 4s2p2d contracted to 2s2p2d pattern {31/11/11}
 Group   3 Type O   : 14s10p6d2f1g contracted to 10s8p4d2f1g pattern {5111111111/31111111/3111/11/1}
 Group   4 Type Au  : 13s12p11d9f5g3h2i contracted to 13s11p10d8f4g3h2i pattern {1111111111111/21111111111/2111111111/21111111/2111/111/11}
 Group   5 Type Cl  : 16s12p10d4f1g contracted to 13s11p9d4f1g pattern {4111111111111/21111111111/211111111/1111/1}

Atom   0C    basis set group =>   1
Atom   1C    basis set group =>   1
Atom   2C    basis set group =>   1
Atom   3H    basis set group =>   2
Atom   4H    basis set group =>   2
Atom   5H    basis set group =>   2
Atom   6C    basis set group =>   1
Atom   7O    basis set group =>   3
Atom   8C    basis set group =>   1
Atom   9O    basis set group =>   3
Atom  10C    basis set group =>   1
Atom  11O    basis set group =>   3
Atom  12C    basis set group =>   1
Atom  13H    basis set group =>   2
Atom  14H    basis set group =>   2
Atom  15H    basis set group =>   2
Atom  16C    basis set group =>   1
Atom  17H    basis set group =>   2
Atom  18H    basis set group =>   2
Atom  19H    basis set group =>   2
Atom  20C    basis set group =>   1
Atom  21H    basis set group =>   2
Atom  22H    basis set group =>   2
Atom  23H    basis set group =>   2
Atom  24Au   basis set group =>   4
Atom  25Cl   basis set group =>   5
Atom  26Cl   basis set group =>   5
Atom  27Cl   basis set group =>   5
-------------------------
ECP PARAMETER INFORMATION
-------------------------

 Group 1, Type Au ECP Def2-ECP (replacing 60 core electrons, lmax=3)

Atom  24Au   ECP group =>   1



           ************************************************************
           *        Program running with 24 parallel MPI-processes    *
           *              working on a common directory               *
           ************************************************************
------------------------------------------------------------------------------
                           ORCA GTO INTEGRAL CALCULATION
------------------------------------------------------------------------------

                         BASIS SET STATISTICS AND STARTUP INFO

 # of primitive gaussian shells          ...  490
 # of primitive gaussian functions       ... 1162
 # of contracted shells                  ...  311
 # of contracted basis functions         ...  869
 Highest angular momentum                ...    4
 Maximum contraction depth               ...    7
 Integral package used                   ... LIBINT
 Integral threshhold            Thresh   ...  1.000e-10
 Primitive cut-off              TCut     ...  1.000e-11


------------------------------ INTEGRAL EVALUATION ----------------------------


 * One electron integrals 

   ECP integrals                         ... done
 Pre-screening matrix                    ... done
 Shell pair data                         ... done (   0.011 sec)



           ************************************************************
           *        Program running with 24 parallel MPI-processes    *
           *              working on a common directory               *
           ************************************************************
-------------------------------------------------------------------------------
                                 ORCA SCF
-------------------------------------------------------------------------------

------------
SCF SETTINGS
------------
Hamiltonian:
 Density Functional     Method          .... DFT(GTOs)
 Exchange Functional    Exchange        .... WB97M-V
 Correlation Functional Correlation     .... WB97M-V
 Gradients option       PostSCFGGA      .... off
 Hybrid DFT is turned on
   Fraction HF Exchange ScalHFX         ....  0.150000
   Scaling of DF-GGA-X  ScalDFX         ....  0.000000
   Scaling of DF-GGA-C  ScalDFC         ....  1.000000
   Scaling of DF-LDA-C  ScalLDAC        ....  1.000000
   Perturbative correction              ....  0.000000
   Density functional embedding theory  .... OFF
 Long-range corrected/Screened/Range-Separated Hybrid DFT is turned on
   Amount of maximum screened exact exchange              ....  0.850000
   Range separation parameter mu (erf(mu*r12)/r12)        ....  0.300000
   NL short-range parameter             ....  6.000000
   NL long-range parameter              ....  0.010000


General Settings:
 Integral files         IntName         .... TMB28_C1
 Hartree-Fock type      HFTyp           .... RHF
 Total Charge           Charge          ....    0
 Multiplicity           Mult            ....    1
 Number of Electrons    NEL             ....  160
 Basis Dimension        Dim             ....  869
 Nuclear Repulsion      ENuc            ....   1829.0504274765 Eh

Convergence Acceleration:
 DIIS                   CNVDIIS         .... on
   Start iteration      DIISMaxIt       ....    12
   Startup error        DIISStart       ....  0.200000
   # of expansion vecs  DIISMaxEq       ....     5
   Bias factor          DIISBfac        ....   1.050
   Max. coefficient     DIISMaxC        ....  10.000
 Newton-Raphson         CNVNR           .... off
 SOSCF                  CNVSOSCF        .... off
 Level Shifting         CNVShift        .... on
   Level shift para.    LevelShift      ....    0.2500
   Turn off err/grad.   ShiftErr        ....    0.0010
 Zerner damping         CNVZerner       .... off
 Static damping         CNVDamp         .... on
   Fraction old density DampFac         ....    0.7000
   Max. Damping (<1)    DampMax         ....    0.9800
   Min. Damping (>=0)   DampMin         ....    0.0000
   Turn off err/grad.   DampErr         ....    0.1000
 Fernandez-Rico         CNVRico         .... off

SCF Procedure:
 Maximum # iterations   MaxIter         ....   125
 SCF integral mode      SCFMode         .... Direct
   Integral package                     .... LIBINT
 Reset frequency        DirectResetFreq ....    20
 Integral Threshold     Thresh          ....  1.000e-10 Eh
 Primitive CutOff       TCut            ....  1.000e-11 Eh

Convergence Tolerance:
 Convergence Check Mode ConvCheckMode   .... Total+1el-Energy
 Convergence forced     ConvForced      .... 0
 Energy Change          TolE            ....  1.000e-06 Eh
 1-El. energy change                    ....  1.000e-03 Eh
 DIIS Error             TolErr          ....  1.000e-06


Diagonalization of the overlap matrix:
Smallest eigenvalue                        ... 1.147e-07
Time for diagonalization                   ...    0.134 sec
Threshold for overlap eigenvalues          ... 1.000e-08
Number of eigenvalues below threshold      ... 0
Time for construction of square roots      ...    0.094 sec
Total time needed                          ...    0.230 sec

-------------------
DFT GRID GENERATION
-------------------

General Integration Accuracy     IntAcc      ...  4.670
Radial Grid Type                 RadialGrid  ... Gauss-Chebyshev
Angular Grid (max. acc.)         AngularGrid ... Lebedev-302
Angular grid pruning method      GridPruning ... 3 (G Style)
Weight generation scheme         WeightScheme... Becke
Basis function cutoff            BFCut       ...    1.0000e-10
Integration weight cutoff        WCut        ...    1.0000e-14
Grids for H and He will be reduced by one unit

# of grid points (after initial pruning)     ... 147138 (   0.0 sec)
# of grid points (after weights+screening)   ... 130379 (   0.1 sec)
nearest neighbour list constructed           ...    0.0 sec
Grid point re-assignment to atoms done       ...    0.0 sec
Grid point division into batches done        ...    0.5 sec
Reduced shell lists constructed in    0.6 sec

Total number of grid points                  ...   130379
Total number of batches                      ...     2048
Average number of points per batch           ...       63
Average number of grid points per atom       ...     4656
Average number of shells per batch           ...   193.97 (62.37%)
Average number of basis functions per batch  ...   547.87 (63.05%)
Average number of large shells per batch     ...   152.14 (78.44%)
Average number of large basis fcns per batch ...   426.57 (77.86%)
Maximum spatial batch extension              ...   2.30,  2.58,  2.08 au
Average spatial batch extension              ...   0.05,  0.05,  0.05 au

Time for grid setup =    0.770 sec

------------------------------
INITIAL GUESS: MODEL POTENTIAL
------------------------------
Loading Hartree-Fock densities                     ... done
  calling /sw/apps/orca/orca_4_2_0_linux_x86-64_openmpi314/orca TMB28_C1_atom79.inp > TMB28_C1_atom79.out in order to generate an atomic fitting density for atom 24 (Au with ECP) on-the-fly... 
    atom 24 (Au), assumed electronic state with S=2: 1s2 2s2 2p6 3s2 3p6 4s2 3d10 4p6 5s2 4d10 5p6 6s1 4f14 5d10           ... done
Calculating cut-offs                               ... done
Setting up the integral package                    ... done
Initializing the effective Hamiltonian             ... done
Starting the Coulomb interaction                   ... done (   0.1 sec)
Reading the grid                                   ... done
Mapping shells                                     ... done
Starting the XC term evaluation                    ... done (   0.4 sec)
  promolecular density results
     # of electrons  =    219.995265810
     EX              =   -522.023953454
     EC              =     -9.854761278
     EX+EC           =   -531.878714732
Transforming the Hamiltonian                       ... done (   0.1 sec)
Diagonalizing the Hamiltonian                      ... done (   0.1 sec)
Back transforming the eigenvectors                 ... done (   0.0 sec)
Now organizing SCF variables                       ... done
                      ------------------
                      INITIAL GUESS DONE (   2.6 sec)
                      ------------------
--------------
SCF ITERATIONS
--------------
ITER       Energy         Delta-E        Max-DP      RMS-DP      [F,P]     Damp
               ***  Starting incremental Fock matrix formation  ***
  0  -2092.2268131924   0.000000000000 5.46158780  0.01415001  0.5670041 0.7000
  1  -2092.4287732149  -0.201960022574 4.18442247  0.01093757  0.4046523 0.7000
  2  -2092.5278160626  -0.099042847629 3.31957082  0.00855986  0.2868494 0.7000
  3  -2092.5880438797  -0.060227817180 2.57691246  0.00653413  0.2022279 0.7000
                               ***Turning on DIIS***
  4  -2092.6292260823  -0.041182202513 2.04351144  0.00508237  0.1420182 0.7000
  5  -2092.6579670593  -0.028740977016 4.25839645  0.01076276  0.0995855 0.0000
  6  -2092.7256156620  -0.067648602703 1.03775747  0.00250834  0.0018896 0.0000
  7  -2092.7257831826  -0.000167520614 0.31392235  0.00079542  0.0010916 0.0000
  8  -2092.7258343581  -0.000051175539 0.13024416  0.00035951  0.0012222 0.0000
  9  -2092.7258531326  -0.000018774427 0.30373703  0.00058698  0.0003065 0.0000
 10  -2092.7258597689  -0.000006636350 0.82960711  0.00208844  0.0001653 0.0000
 11  -2092.7258603951  -0.000000626153 0.32589556  0.00079586  0.0001613 0.0000
 12  -2092.7258604609  -0.000000065845 0.62224815  0.00159691  0.0000652 0.0000
                 **** Energy Check signals convergence ****

               *****************************************************
               *                     SUCCESS                       *
               *           SCF CONVERGED AFTER  13 CYCLES          *
               *****************************************************


Setting up the DFT-NL grid :

General Integration Accuracy     IntAcc      ...  4.340
Radial Grid Type                 RadialGrid  ... Gauss-Chebyshev
Angular Grid (max. acc.)         AngularGrid ... Lebedev-110
Angular grid pruning method      GridPruning ... 3 (G Style)
Weight generation scheme         WeightScheme... Becke
Basis function cutoff            BFCut       ...    1.0000e-10
Integration weight cutoff        WCut        ...    1.0000e-14
Grids for H and He will be reduced by one unit

# of grid points (after initial pruning)     ...  38642 (   0.0 sec)
# of grid points (after weights+screening)   ...  34971 (   0.0 sec)
nearest neighbour list constructed           ...    0.0 sec
Grid point re-assignment to atoms done       ...    0.0 sec
Grid point division into batches done        ...    0.0 sec
Reduced shell lists constructed in    0.1 sec

Total number of grid points                  ...    34971
Total number of batches                      ...      558
Average number of points per batch           ...       62
Average number of grid points per atom       ...     1249
Average number of shells per batch           ...   197.08 (63.37%)
Average number of basis functions per batch  ...   559.80 (64.42%)
Average number of large shells per batch     ...   155.80 (79.05%)
Average number of large basis fcns per batch ...   437.96 (78.24%)
Maximum spatial batch extension              ...   3.34,  2.71,  3.15 au
Average spatial batch extension              ...   0.09,  0.08,  0.08 au

Final grid set up in    0.1 sec

-------------------------------------------------------------------------------
                         DFT-NL dispersion correction                          
-------------------------------------------------------------------------------

SC Energy -2092.725860458 
NL    Energy 0.605127867 
SC+NL Energy -2092.120732591 
NL done in    0.5 sec
-------------------------------------------------------------------------------

----------------
TOTAL SCF ENERGY
----------------

Total Energy       :        -2092.12073259 Eh          -56929.49937 eV

Components:
Nuclear Repulsion  :         1829.05042748 Eh           49770.99244 eV
Electronic Energy  :        -3921.17116007 Eh         -106700.49181 eV
One Electron Energy:        -6570.42424566 Eh         -178790.33325 eV
Two Electron Energy:         2649.25308559 Eh           72089.84144 eV

Virial components:
Potential Energy   :        -4090.41699807 Eh         -111305.90520 eV
Kinetic Energy     :         1998.29626548 Eh           54376.40583 eV
Virial Ratio       :            2.04695223


DFT components:
N(Alpha)           :       79.999905246186 electrons
N(Beta)            :       79.999905246186 electrons
N(Total)           :      159.999810492373 electrons
E(X)               :     -124.150879790800 Eh       
E(C)               :       -5.875401319149 Eh       
NL Energy, E(C,NL) :        0.605127867220 Eh       
E(XC)              :     -129.421153242730 Eh       
DFET-embed. en.    :        0.000000000000 Eh       

---------------
SCF CONVERGENCE
---------------

  Last Energy change         ...    2.6898e-09  Tolerance :   1.0000e-06
  Last MAX-Density change    ...    6.3064e-01  Tolerance :   1.0000e-05
  Last RMS-Density change    ...    1.3054e-03  Tolerance :   1.0000e-06
  Last DIIS Error            ...    2.8117e-05  Tolerance :   1.0000e-06

             **** THE GBW FILE WAS UPDATED (TMB28_C1.gbw) ****
             **** DENSITY FILE WAS UPDATED (TMB28_C1.scfp) ****
             **** ENERGY FILE WAS UPDATED (TMB28_C1.en.tmp) ****
             **** THE GBW FILE WAS UPDATED (TMB28_C1.gbw) ****
             **** DENSITY FILE WAS UPDATED (TMB28_C1.scfp) ****
----------------
ORBITAL ENERGIES
----------------

  NO   OCC          E(Eh)            E(eV) 
   0   2.0000    -101.852782     -2771.5551 
   1   2.0000    -101.849593     -2771.4683 
   2   2.0000    -101.847780     -2771.4190 
   3   2.0000     -19.418728      -528.4105 
   4   2.0000     -19.360180      -526.8173 
   5   2.0000     -19.356373      -526.7137 
   6   2.0000     -10.515442      -286.1397 
   7   2.0000     -10.488174      -285.3977 
   8   2.0000     -10.475921      -285.0643 
   9   2.0000     -10.443627      -284.1856 
  10   2.0000     -10.431617      -283.8587 
  11   2.0000     -10.401106      -283.0285 
  12   2.0000     -10.378625      -282.4167 
  13   2.0000     -10.377156      -282.3768 
  14   2.0000     -10.368058      -282.1292 
  15   2.0000      -9.624984      -261.9091 
  16   2.0000      -9.621656      -261.8186 
  17   2.0000      -9.619587      -261.7623 
  18   2.0000      -7.328439      -199.4170 
  19   2.0000      -7.325419      -199.3348 
  20   2.0000      -7.323825      -199.2914 
  21   2.0000      -7.322202      -199.2472 
  22   2.0000      -7.321694      -199.2334 
  23   2.0000      -7.318669      -199.1511 
  24   2.0000      -7.318252      -199.1398 
  25   2.0000      -7.316494      -199.0919 
  26   2.0000      -7.315801      -199.0731 
  27   2.0000      -4.421680      -120.3200 
  28   2.0000      -2.597575       -70.6836 
  29   2.0000      -2.594730       -70.6062 
  30   2.0000      -2.571934       -69.9859 
  31   2.0000      -1.281892       -34.8821 
  32   2.0000      -1.219698       -33.1897 
  33   2.0000      -1.192395       -32.4467 
  34   2.0000      -1.008110       -27.4321 
  35   2.0000      -0.965275       -26.2665 
  36   2.0000      -0.924377       -25.1536 
  37   2.0000      -0.906108       -24.6565 
  38   2.0000      -0.905266       -24.6335 
  39   2.0000      -0.901954       -24.5434 
  40   2.0000      -0.899824       -24.4855 
  41   2.0000      -0.883448       -24.0398 
  42   2.0000      -0.823777       -22.4161 
  43   2.0000      -0.749980       -20.4080 
  44   2.0000      -0.719853       -19.5882 
  45   2.0000      -0.648427       -17.6446 
  46   2.0000      -0.644770       -17.5451 
  47   2.0000      -0.635556       -17.2944 
  48   2.0000      -0.627602       -17.0779 
  49   2.0000      -0.610562       -16.6142 
  50   2.0000      -0.606000       -16.4901 
  51   2.0000      -0.599372       -16.3097 
  52   2.0000      -0.587891       -15.9973 
  53   2.0000      -0.574060       -15.6210 
  54   2.0000      -0.572033       -15.5658 
  55   2.0000      -0.567278       -15.4364 
  56   2.0000      -0.562858       -15.3161 
  57   2.0000      -0.555423       -15.1138 
  58   2.0000      -0.548376       -14.9221 
  59   2.0000      -0.544406       -14.8140 
  60   2.0000      -0.541832       -14.7440 
  61   2.0000      -0.540923       -14.7193 
  62   2.0000      -0.538251       -14.6465 
  63   2.0000      -0.517239       -14.0748 
  64   2.0000      -0.512641       -13.9497 
  65   2.0000      -0.501584       -13.6488 
  66   2.0000      -0.495186       -13.4747 
  67   2.0000      -0.463547       -12.6138 
  68   2.0000      -0.453867       -12.3504 
  69   2.0000      -0.447971       -12.1899 
  70   2.0000      -0.447173       -12.1682 
  71   2.0000      -0.422789       -11.5047 
  72   2.0000      -0.418031       -11.3752 
  73   2.0000      -0.407223       -11.0811 
  74   2.0000      -0.398407       -10.8412 
  75   2.0000      -0.389068       -10.5871 
  76   2.0000      -0.384392       -10.4598 
  77   2.0000      -0.382985       -10.4216 
  78   2.0000      -0.379495       -10.3266 
  79   2.0000      -0.370847       -10.0913 
  80   0.0000      -0.070997        -1.9319 
  81   0.0000       0.011636         0.3166 
  82   0.0000       0.018278         0.4974 
  83   0.0000       0.026796         0.7292 
  84   0.0000       0.030572         0.8319 
  85   0.0000       0.033752         0.9184 
  86   0.0000       0.037703         1.0260 
  87   0.0000       0.051998         1.4149 
  88   0.0000       0.053573         1.4578 
  89   0.0000       0.056421         1.5353 
  90   0.0000       0.058545         1.5931 
  91   0.0000       0.062733         1.7071 
  92   0.0000       0.064723         1.7612 
  93   0.0000       0.068056         1.8519 
  94   0.0000       0.076425         2.0796 
  95   0.0000       0.083419         2.2700 
  96   0.0000       0.084782         2.3070 
  97   0.0000       0.088074         2.3966 
  98   0.0000       0.093711         2.5500 
  99   0.0000       0.094707         2.5771 
 100   0.0000       0.100734         2.7411 
 101   0.0000       0.103937         2.8283 
 102   0.0000       0.105061         2.8589 
 103   0.0000       0.112906         3.0723 
 104   0.0000       0.117098         3.1864 
 105   0.0000       0.121435         3.3044 
 106   0.0000       0.129024         3.5109 
 107   0.0000       0.132810         3.6139 
 108   0.0000       0.136109         3.7037 
 109   0.0000       0.139109         3.7853 
 110   0.0000       0.144448         3.9306 
 111   0.0000       0.148250         4.0341 
 112   0.0000       0.150136         4.0854 
 113   0.0000       0.157444         4.2843 
 114   0.0000       0.159406         4.3377 
 115   0.0000       0.164223         4.4687 
 116   0.0000       0.170629         4.6430 
 117   0.0000       0.172942         4.7060 
 118   0.0000       0.176621         4.8061 
 119   0.0000       0.187294         5.0965 
 120   0.0000       0.191069         5.1993 
 121   0.0000       0.195139         5.3100 
 122   0.0000       0.196889         5.3576 
 123   0.0000       0.202689         5.5154 
 124   0.0000       0.208819         5.6822 
 125   0.0000       0.212841         5.7917 
 126   0.0000       0.218418         5.9435 
 127   0.0000       0.219167         5.9638 
 128   0.0000       0.224596         6.1116 
 129   0.0000       0.230567         6.2741 
 130   0.0000       0.235937         6.4202 
 131   0.0000       0.238126         6.4797 
 132   0.0000       0.240581         6.5465 
 133   0.0000       0.244201         6.6450 
 134   0.0000       0.250645         6.8204 
 135   0.0000       0.253779         6.9057 
 136   0.0000       0.255997         6.9660 
 137   0.0000       0.259105         7.0506 
 138   0.0000       0.262147         7.1334 
 139   0.0000       0.262921         7.1544 
 140   0.0000       0.265789         7.2325 
 141   0.0000       0.267892         7.2897 
 142   0.0000       0.275841         7.5060 
 143   0.0000       0.277893         7.5619 
 144   0.0000       0.279197         7.5973 
 145   0.0000       0.282478         7.6866 
 146   0.0000       0.283051         7.7022 
 147   0.0000       0.290136         7.8950 
 148   0.0000       0.291732         7.9384 
 149   0.0000       0.295066         8.0292 
 150   0.0000       0.296362         8.0644 
 151   0.0000       0.298202         8.1145 
 152   0.0000       0.300448         8.1756 
 153   0.0000       0.304332         8.2813 
 154   0.0000       0.309125         8.4117 
 155   0.0000       0.309895         8.4327 
 156   0.0000       0.312271         8.4973 
 157   0.0000       0.316046         8.6000 
 158   0.0000       0.316713         8.6182 
 159   0.0000       0.321285         8.7426 
 160   0.0000       0.324866         8.8400 
 161   0.0000       0.325942         8.8693 
 162   0.0000       0.329072         8.9545 
 163   0.0000       0.333688         9.0801 
 164   0.0000       0.336502         9.1567 
 165   0.0000       0.338984         9.2242 
 166   0.0000       0.339872         9.2484 
 167   0.0000       0.342177         9.3111 
 168   0.0000       0.343878         9.3574 
 169   0.0000       0.347105         9.4452 
 170   0.0000       0.350474         9.5369 
 171   0.0000       0.351317         9.5598 
 172   0.0000       0.355844         9.6830 
 173   0.0000       0.360192         9.8013 
 174   0.0000       0.360901         9.8206 
 175   0.0000       0.364666         9.9231 
 176   0.0000       0.367867        10.0102 
 177   0.0000       0.371872        10.1191 
 178   0.0000       0.373782        10.1711 
 179   0.0000       0.377905        10.2833 
 180   0.0000       0.379569        10.3286 
 181   0.0000       0.382393        10.4054 
 182   0.0000       0.386057        10.5051 
 183   0.0000       0.389137        10.5889 
 184   0.0000       0.392177        10.6717 
 185   0.0000       0.397318        10.8116 
 186   0.0000       0.399244        10.8640 
 187   0.0000       0.404655        11.0112 
 188   0.0000       0.406553        11.0629 
 189   0.0000       0.411953        11.2098 
 190   0.0000       0.414241        11.2721 
 191   0.0000       0.419301        11.4098 
 192   0.0000       0.420605        11.4452 
 193   0.0000       0.424691        11.5564 
 194   0.0000       0.431515        11.7421 
 195   0.0000       0.433574        11.7982 
 196   0.0000       0.436467        11.8769 
 197   0.0000       0.441165        12.0047 
 198   0.0000       0.443514        12.0686 
 199   0.0000       0.449547        12.2328 
 200   0.0000       0.451591        12.2884 
 201   0.0000       0.453852        12.3499 
 202   0.0000       0.457133        12.4392 
 203   0.0000       0.459672        12.5083 
 204   0.0000       0.460573        12.5328 
 205   0.0000       0.467868        12.7313 
 206   0.0000       0.470699        12.8084 
 207   0.0000       0.475925        12.9506 
 208   0.0000       0.479175        13.0390 
 209   0.0000       0.484648        13.1879 
 210   0.0000       0.487668        13.2701 
 211   0.0000       0.489420        13.3178 
 212   0.0000       0.492910        13.4128 
 213   0.0000       0.497481        13.5371 
 214   0.0000       0.504356        13.7242 
 215   0.0000       0.505527        13.7561 
 216   0.0000       0.511017        13.9055 
 217   0.0000       0.514209        13.9923 
 218   0.0000       0.518639        14.1129 
 219   0.0000       0.523740        14.2517 
 220   0.0000       0.525467        14.2987 
 221   0.0000       0.534724        14.5506 
 222   0.0000       0.537544        14.6273 
 223   0.0000       0.541683        14.7399 
 224   0.0000       0.546154        14.8616 
 225   0.0000       0.551864        15.0170 
 226   0.0000       0.556271        15.1369 
 227   0.0000       0.560614        15.2551 
 228   0.0000       0.565059        15.3760 
 229   0.0000       0.568000        15.4561 
 230   0.0000       0.573845        15.6151 
 231   0.0000       0.574393        15.6300 
 232   0.0000       0.576186        15.6788 
 233   0.0000       0.584169        15.8961 
 234   0.0000       0.586697        15.9648 
 235   0.0000       0.593364        16.1463 
 236   0.0000       0.595580        16.2066 
 237   0.0000       0.596990        16.2449 
 238   0.0000       0.601703        16.3732 
 239   0.0000       0.609389        16.5823 
 240   0.0000       0.610614        16.6156 
 241   0.0000       0.621444        16.9104 
 242   0.0000       0.625949        17.0329 
 243   0.0000       0.628781        17.1100 
 244   0.0000       0.631350        17.1799 
 245   0.0000       0.639954        17.4140 
 246   0.0000       0.642545        17.4845 
 247   0.0000       0.646282        17.5862 
 248   0.0000       0.647885        17.6298 
 249   0.0000       0.655155        17.8277 
 250   0.0000       0.658679        17.9236 
 251   0.0000       0.661692        18.0056 
 252   0.0000       0.664681        18.0869 
 253   0.0000       0.668351        18.1867 
 254   0.0000       0.672499        18.2996 
 255   0.0000       0.672899        18.3105 
 256   0.0000       0.676567        18.4103 
 257   0.0000       0.683558        18.6006 
 258   0.0000       0.686872        18.6907 
 259   0.0000       0.688619        18.7383 
 260   0.0000       0.694645        18.9023 
 261   0.0000       0.696546        18.9540 
 262   0.0000       0.702446        19.1145 
 263   0.0000       0.709174        19.2976 
 264   0.0000       0.715749        19.4765 
 265   0.0000       0.718698        19.5568 
 266   0.0000       0.722664        19.6647 
 267   0.0000       0.724436        19.7129 
 268   0.0000       0.724541        19.7158 
 269   0.0000       0.727909        19.8074 
 270   0.0000       0.728973        19.8364 
 271   0.0000       0.730188        19.8694 
 272   0.0000       0.736435        20.0394 
 273   0.0000       0.740903        20.1610 
 274   0.0000       0.745211        20.2782 
 275   0.0000       0.746345        20.3091 
 276   0.0000       0.749365        20.3913 
 277   0.0000       0.753612        20.5068 
 278   0.0000       0.756144        20.5757 
 279   0.0000       0.758463        20.6388 
 280   0.0000       0.760639        20.6980 
 281   0.0000       0.762669        20.7533 
 282   0.0000       0.766746        20.8642 
 283   0.0000       0.769840        20.9484 
 284   0.0000       0.774869        21.0853 
 285   0.0000       0.776347        21.1255 
 286   0.0000       0.782318        21.2880 
 287   0.0000       0.785960        21.3870 
 288   0.0000       0.788301        21.4508 
 289   0.0000       0.795798        21.6548 
 290   0.0000       0.800372        21.7792 
 291   0.0000       0.803168        21.8553 
 292   0.0000       0.808230        21.9931 
 293   0.0000       0.811651        22.0861 
 294   0.0000       0.815819        22.1996 
 295   0.0000       0.821123        22.3439 
 296   0.0000       0.823547        22.4099 
 297   0.0000       0.827703        22.5230 
 298   0.0000       0.836207        22.7544 
 299   0.0000       0.836522        22.7629 
 300   0.0000       0.842654        22.9298 
 301   0.0000       0.846969        23.0472 
 302   0.0000       0.848043        23.0764 
 303   0.0000       0.854077        23.2406 
 304   0.0000       0.861545        23.4438 
 305   0.0000       0.865035        23.5388 
 306   0.0000       0.866737        23.5851 
 307   0.0000       0.870255        23.6808 
 308   0.0000       0.878822        23.9140 
 309   0.0000       0.883460        24.0402 
 310   0.0000       0.887892        24.1608 
 311   0.0000       0.892857        24.2959 
 312   0.0000       0.897021        24.4092 
 313   0.0000       0.909935        24.7606 
 314   0.0000       0.912248        24.8235 
 315   0.0000       0.915622        24.9153 
 316   0.0000       0.926735        25.2177 
 317   0.0000       0.930569        25.3221 
 318   0.0000       0.937016        25.4975 
 319   0.0000       0.944587        25.7035 
 320   0.0000       0.947575        25.7848 
 321   0.0000       0.953206        25.9381 
 322   0.0000       0.959116        26.0989 
 323   0.0000       0.963075        26.2066 
 324   0.0000       0.973287        26.4845 
 325   0.0000       0.978017        26.6132 
 326   0.0000       0.985831        26.8258 
 327   0.0000       0.992264        27.0009 
 328   0.0000       0.994705        27.0673 
 329   0.0000       1.004667        27.3384 
 330   0.0000       1.013727        27.5849 
 331   0.0000       1.016630        27.6639 
 332   0.0000       1.033050        28.1107 
 333   0.0000       1.036970        28.2174 
 334   0.0000       1.045030        28.4367 
 335   0.0000       1.054957        28.7068 
 336   0.0000       1.055234        28.7144 
 337   0.0000       1.068331        29.0708 
 338   0.0000       1.071869        29.1670 
 339   0.0000       1.086660        29.5695 
 340   0.0000       1.088279        29.6136 
 341   0.0000       1.094911        29.7940 
 342   0.0000       1.100534        29.9471 
 343   0.0000       1.111584        30.2477 
 344   0.0000       1.122023        30.5318 
 345   0.0000       1.125781        30.6341 
 346   0.0000       1.133717        30.8500 
 347   0.0000       1.136806        30.9341 
 348   0.0000       1.140565        31.0364 
 349   0.0000       1.154951        31.4278 
 350   0.0000       1.158950        31.5366 
 351   0.0000       1.166758        31.7491 
 352   0.0000       1.169298        31.8182 
 353   0.0000       1.175774        31.9944 
 354   0.0000       1.183308        32.1995 
 355   0.0000       1.188865        32.3507 
 356   0.0000       1.202854        32.7313 
 357   0.0000       1.209657        32.9164 
 358   0.0000       1.217121        33.1196 
 359   0.0000       1.223366        33.2895 
 360   0.0000       1.228488        33.4289 
 361   0.0000       1.238651        33.7054 
 362   0.0000       1.252675        34.0870 
 363   0.0000       1.258654        34.2497 
 364   0.0000       1.263046        34.3692 
 365   0.0000       1.271731        34.6056 
 366   0.0000       1.273908        34.6648 
 367   0.0000       1.284673        34.9577 
 368   0.0000       1.285580        34.9824 
 369   0.0000       1.290292        35.1106 
 370   0.0000       1.298119        35.3236 
 371   0.0000       1.299155        35.3518 
 372   0.0000       1.303711        35.4758 
 373   0.0000       1.318867        35.8882 
 374   0.0000       1.326489        36.0956 
 375   0.0000       1.331471        36.2312 
 376   0.0000       1.334918        36.3250 
 377   0.0000       1.342654        36.5355 
 378   0.0000       1.350284        36.7431 
 379   0.0000       1.361063        37.0364 
 380   0.0000       1.365335        37.1527 
 381   0.0000       1.368354        37.2348 
 382   0.0000       1.385352        37.6973 
 383   0.0000       1.395304        37.9682 
 384   0.0000       1.401060        38.1248 
 385   0.0000       1.403174        38.1823 
 386   0.0000       1.408320        38.3223 
 387   0.0000       1.416905        38.5559 
 388   0.0000       1.427486        38.8439 
 389   0.0000       1.433189        38.9991 
 390   0.0000       1.439801        39.1790 
 391   0.0000       1.444231        39.2995 
 392   0.0000       1.449713        39.4487 
 393   0.0000       1.462452        39.7953 
 394   0.0000       1.469301        39.9817 
 395   0.0000       1.472783        40.0765 
 396   0.0000       1.479486        40.2589 
 397   0.0000       1.487533        40.4778 
 398   0.0000       1.489517        40.5318 
 399   0.0000       1.495517        40.6951 
 400   0.0000       1.514222        41.2041 
 401   0.0000       1.522332        41.4248 
 402   0.0000       1.527406        41.5628 
 403   0.0000       1.532875        41.7117 
 404   0.0000       1.544979        42.0410 
 405   0.0000       1.554697        42.3055 
 406   0.0000       1.559808        42.4445 
 407   0.0000       1.565765        42.6066 
 408   0.0000       1.574224        42.8368 
 409   0.0000       1.592615        43.3373 
 410   0.0000       1.598763        43.5046 
 411   0.0000       1.618834        44.0507 
 412   0.0000       1.621486        44.1229 
 413   0.0000       1.635433        44.5024 
 414   0.0000       1.641417        44.6652 
 415   0.0000       1.644919        44.7605 
 416   0.0000       1.652384        44.9637 
 417   0.0000       1.666127        45.3376 
 418   0.0000       1.668719        45.4082 
 419   0.0000       1.670543        45.4578 
 420   0.0000       1.675329        45.5880 
 421   0.0000       1.680503        45.7288 
 422   0.0000       1.686279        45.8860 
 423   0.0000       1.691652        46.0322 
 424   0.0000       1.699607        46.2486 
 425   0.0000       1.714195        46.6456 
 426   0.0000       1.718137        46.7529 
 427   0.0000       1.728057        47.0228 
 428   0.0000       1.733516        47.1714 
 429   0.0000       1.741247        47.3817 
 430   0.0000       1.747010        47.5386 
 431   0.0000       1.758772        47.8586 
 432   0.0000       1.768888        48.1339 
 433   0.0000       1.772654        48.2364 
 434   0.0000       1.787364        48.6366 
 435   0.0000       1.795550        48.8594 
 436   0.0000       1.803064        49.0639 
 437   0.0000       1.805034        49.1175 
 438   0.0000       1.823036        49.6073 
 439   0.0000       1.829092        49.7721 
 440   0.0000       1.847584        50.2753 
 441   0.0000       1.854106        50.4528 
 442   0.0000       1.871726        50.9323 
 443   0.0000       1.888621        51.3920 
 444   0.0000       1.891184        51.4617 
 445   0.0000       1.904655        51.8283 
 446   0.0000       1.911898        52.0254 
 447   0.0000       1.925914        52.4068 
 448   0.0000       1.927621        52.4532 
 449   0.0000       1.944057        52.9005 
 450   0.0000       1.975697        53.7614 
 451   0.0000       1.976448        53.7819 
 452   0.0000       2.004125        54.5350 
 453   0.0000       2.012648        54.7669 
 454   0.0000       2.027231        55.1637 
 455   0.0000       2.043785        55.6142 
 456   0.0000       2.045208        55.6529 
 457   0.0000       2.050312        55.7918 
 458   0.0000       2.059433        56.0400 
 459   0.0000       2.062606        56.1264 
 460   0.0000       2.081096        56.6295 
 461   0.0000       2.085298        56.7438 
 462   0.0000       2.092182        56.9312 
 463   0.0000       2.098821        57.1118 
 464   0.0000       2.101179        57.1760 
 465   0.0000       2.103266        57.2328 
 466   0.0000       2.114248        57.5316 
 467   0.0000       2.118116        57.6369 
 468   0.0000       2.125201        57.8297 
 469   0.0000       2.128878        57.9297 
 470   0.0000       2.139075        58.2072 
 471   0.0000       2.147139        58.4266 
 472   0.0000       2.155946        58.6663 
 473   0.0000       2.163810        58.8803 
 474   0.0000       2.164886        58.9095 
 475   0.0000       2.168179        58.9992 
 476   0.0000       2.178756        59.2870 
 477   0.0000       2.186129        59.4876 
 478   0.0000       2.187253        59.5182 
 479   0.0000       2.195431        59.7407 
 480   0.0000       2.203858        59.9700 
 481   0.0000       2.212104        60.1944 
 482   0.0000       2.216633        60.3177 
 483   0.0000       2.222157        60.4680 
 484   0.0000       2.226713        60.5919 
 485   0.0000       2.230233        60.6877 
 486   0.0000       2.236355        60.8543 
 487   0.0000       2.238643        60.9166 
 488   0.0000       2.256512        61.4028 
 489   0.0000       2.257358        61.4258 
 490   0.0000       2.260260        61.5048 
 491   0.0000       2.270244        61.7765 
 492   0.0000       2.272315        61.8328 
 493   0.0000       2.285413        62.1892 
 494   0.0000       2.295146        62.4541 
 495   0.0000       2.299539        62.5736 
 496   0.0000       2.310324        62.8671 
 497   0.0000       2.315247        63.0011 
 498   0.0000       2.327010        63.3211 
 499   0.0000       2.329992        63.4023 
 500   0.0000       2.350784        63.9681 
 501   0.0000       2.357386        64.1477 
 502   0.0000       2.361279        64.2537 
 503   0.0000       2.371870        64.5419 
 504   0.0000       2.382224        64.8236 
 505   0.0000       2.387416        64.9649 
 506   0.0000       2.405489        65.4567 
 507   0.0000       2.415189        65.7206 
 508   0.0000       2.421012        65.8791 
 509   0.0000       2.431879        66.1748 
 510   0.0000       2.451074        66.6971 
 511   0.0000       2.456279        66.8388 
 512   0.0000       2.467409        67.1416 
 513   0.0000       2.487265        67.6819 
 514   0.0000       2.496128        67.9231 
 515   0.0000       2.512720        68.3746 
 516   0.0000       2.521144        68.6038 
 517   0.0000       2.533991        68.9534 
 518   0.0000       2.540939        69.1425 
 519   0.0000       2.549955        69.3878 
 520   0.0000       2.561401        69.6993 
 521   0.0000       2.587125        70.3992 
 522   0.0000       2.598977        70.7218 
 523   0.0000       2.630088        71.5683 
 524   0.0000       2.630360        71.5757 
 525   0.0000       2.646030        72.0021 
 526   0.0000       2.649960        72.1091 
 527   0.0000       2.655247        72.2530 
 528   0.0000       2.666840        72.5684 
 529   0.0000       2.670010        72.6547 
 530   0.0000       2.673955        72.7620 
 531   0.0000       2.676108        72.8206 
 532   0.0000       2.688009        73.1444 
 533   0.0000       2.700426        73.4823 
 534   0.0000       2.721784        74.0635 
 535   0.0000       2.727112        74.2085 
 536   0.0000       2.747186        74.7547 
 537   0.0000       2.752704        74.9049 
 538   0.0000       2.763337        75.1942 
 539   0.0000       2.781660        75.6928 
 540   0.0000       2.795025        76.0565 
 541   0.0000       2.802022        76.2469 
 542   0.0000       2.815916        76.6250 
 543   0.0000       2.834169        77.1217 
 544   0.0000       2.842782        77.3560 
 545   0.0000       2.845151        77.4205 
 546   0.0000       2.861726        77.8715 
 547   0.0000       2.871423        78.1354 
 548   0.0000       2.876808        78.2819 
 549   0.0000       2.886944        78.5577 
 550   0.0000       2.898333        78.8677 
 551   0.0000       2.904115        79.0250 
 552   0.0000       2.906015        79.0767 
 553   0.0000       2.914128        79.2975 
 554   0.0000       2.917331        79.3846 
 555   0.0000       2.928117        79.6781 
 556   0.0000       2.934241        79.8448 
 557   0.0000       2.944852        80.1335 
 558   0.0000       2.948896        80.2435 
 559   0.0000       2.965013        80.6821 
 560   0.0000       2.973718        80.9190 
 561   0.0000       2.991607        81.4058 
 562   0.0000       2.999426        81.6185 
 563   0.0000       3.016792        82.0911 
 564   0.0000       3.027811        82.3909 
 565   0.0000       3.033042        82.5333 
 566   0.0000       3.037770        82.6619 
 567   0.0000       3.050100        82.9974 
 568   0.0000       3.063741        83.3686 
 569   0.0000       3.078929        83.7819 
 570   0.0000       3.088766        84.0496 
 571   0.0000       3.093092        84.1673 
 572   0.0000       3.102854        84.4329 
 573   0.0000       3.117765        84.8387 
 574   0.0000       3.124403        85.0193 
 575   0.0000       3.127399        85.1008 
 576   0.0000       3.142152        85.5023 
 577   0.0000       3.151158        85.7474 
 578   0.0000       3.157732        85.9263 
 579   0.0000       3.169704        86.2520 
 580   0.0000       3.175695        86.4151 
 581   0.0000       3.181524        86.5737 
 582   0.0000       3.192636        86.8760 
 583   0.0000       3.194990        86.9401 
 584   0.0000       3.209720        87.3409 
 585   0.0000       3.213716        87.4497 
 586   0.0000       3.228635        87.8556 
 587   0.0000       3.235402        88.0398 
 588   0.0000       3.238675        88.1288 
 589   0.0000       3.245491        88.3143 
 590   0.0000       3.268409        88.9379 
 591   0.0000       3.285225        89.3955 
 592   0.0000       3.292023        89.5805 
 593   0.0000       3.293516        89.6211 
 594   0.0000       3.306674        89.9792 
 595   0.0000       3.325025        90.4785 
 596   0.0000       3.335623        90.7669 
 597   0.0000       3.344900        91.0193 
 598   0.0000       3.354350        91.2765 
 599   0.0000       3.360982        91.4570 
 600   0.0000       3.366579        91.6093 
 601   0.0000       3.380317        91.9831 
 602   0.0000       3.392018        92.3015 
 603   0.0000       3.396915        92.4348 
 604   0.0000       3.408073        92.7384 
 605   0.0000       3.408829        92.7589 
 606   0.0000       3.414901        92.9242 
 607   0.0000       3.426749        93.2466 
 608   0.0000       3.433659        93.4346 
 609   0.0000       3.439911        93.6047 
 610   0.0000       3.458466        94.1096 
 611   0.0000       3.465831        94.3101 
 612   0.0000       3.475229        94.5658 
 613   0.0000       3.483611        94.7939 
 614   0.0000       3.499856        95.2359 
 615   0.0000       3.502151        95.2984 
 616   0.0000       3.508098        95.4602 
 617   0.0000       3.525533        95.9346 
 618   0.0000       3.533755        96.1584 
 619   0.0000       3.544729        96.4570 
 620   0.0000       3.548348        96.5555 
 621   0.0000       3.555735        96.7565 
 622   0.0000       3.561561        96.9150 
 623   0.0000       3.577361        97.3449 
 624   0.0000       3.578445        97.3744 
 625   0.0000       3.592206        97.7489 
 626   0.0000       3.593834        97.7932 
 627   0.0000       3.609498        98.2194 
 628   0.0000       3.617080        98.4257 
 629   0.0000       3.618296        98.4588 
 630   0.0000       3.628000        98.7229 
 631   0.0000       3.639962        99.0484 
 632   0.0000       3.652231        99.3823 
 633   0.0000       3.657397        99.5228 
 634   0.0000       3.661298        99.6290 
 635   0.0000       3.670661        99.8838 
 636   0.0000       3.674361        99.9845 
 637   0.0000       3.690455       100.4224 
 638   0.0000       3.699432       100.6667 
 639   0.0000       3.714437       101.0750 
 640   0.0000       3.724370       101.3453 
 641   0.0000       3.725766       101.3833 
 642   0.0000       3.737532       101.7034 
 643   0.0000       3.752733       102.1171 
 644   0.0000       3.770446       102.5991 
 645   0.0000       3.795459       103.2797 
 646   0.0000       3.806043       103.5677 
 647   0.0000       3.819039       103.9213 
 648   0.0000       3.821676       103.9931 
 649   0.0000       3.844639       104.6179 
 650   0.0000       3.851211       104.7968 
 651   0.0000       3.863254       105.1245 
 652   0.0000       3.874058       105.4185 
 653   0.0000       3.883633       105.6790 
 654   0.0000       3.890188       105.8574 
 655   0.0000       3.899470       106.1100 
 656   0.0000       3.902260       106.1859 
 657   0.0000       3.911995       106.4508 
 658   0.0000       3.940247       107.2196 
 659   0.0000       3.945368       107.3589 
 660   0.0000       3.960569       107.7726 
 661   0.0000       3.962559       107.8267 
 662   0.0000       3.979120       108.2774 
 663   0.0000       3.991949       108.6265 
 664   0.0000       4.008441       109.0752 
 665   0.0000       4.020626       109.4068 
 666   0.0000       4.041983       109.9879 
 667   0.0000       4.051039       110.2344 
 668   0.0000       4.055088       110.3446 
 669   0.0000       4.064421       110.5985 
 670   0.0000       4.077763       110.9616 
 671   0.0000       4.089196       111.2727 
 672   0.0000       4.096217       111.4637 
 673   0.0000       4.099617       111.5563 
 674   0.0000       4.116545       112.0169 
 675   0.0000       4.121925       112.1633 
 676   0.0000       4.132319       112.4461 
 677   0.0000       4.143020       112.7373 
 678   0.0000       4.151236       112.9609 
 679   0.0000       4.157220       113.1237 
 680   0.0000       4.160020       113.1999 
 681   0.0000       4.177675       113.6803 
 682   0.0000       4.180469       113.7564 
 683   0.0000       4.188513       113.9752 
 684   0.0000       4.198799       114.2551 
 685   0.0000       4.205872       114.4476 
 686   0.0000       4.211108       114.5901 
 687   0.0000       4.219182       114.8098 
 688   0.0000       4.222757       114.9071 
 689   0.0000       4.230510       115.1180 
 690   0.0000       4.234905       115.2376 
 691   0.0000       4.239513       115.3630 
 692   0.0000       4.247247       115.5735 
 693   0.0000       4.253073       115.7320 
 694   0.0000       4.262949       116.0007 
 695   0.0000       4.269196       116.1707 
 696   0.0000       4.276645       116.3734 
 697   0.0000       4.287416       116.6665 
 698   0.0000       4.293423       116.8300 
 699   0.0000       4.307949       117.2253 
 700   0.0000       4.320262       117.5603 
 701   0.0000       4.332290       117.8876 
 702   0.0000       4.365592       118.7938 
 703   0.0000       4.371067       118.9428 
 704   0.0000       4.374854       119.0458 
 705   0.0000       4.388363       119.4134 
 706   0.0000       4.400699       119.7491 
 707   0.0000       4.404084       119.8412 
 708   0.0000       4.438275       120.7716 
 709   0.0000       4.446242       120.9884 
 710   0.0000       4.453991       121.1993 
 711   0.0000       4.477091       121.8278 
 712   0.0000       4.483318       121.9973 
 713   0.0000       4.500739       122.4713 
 714   0.0000       4.507019       122.6422 
 715   0.0000       4.521979       123.0493 
 716   0.0000       4.534253       123.3833 
 717   0.0000       4.539357       123.5222 
 718   0.0000       4.563299       124.1737 
 719   0.0000       4.577224       124.5526 
 720   0.0000       4.588741       124.8660 
 721   0.0000       4.609961       125.4434 
 722   0.0000       4.615269       125.5879 
 723   0.0000       4.641894       126.3124 
 724   0.0000       4.668922       127.0478 
 725   0.0000       4.674013       127.1864 
 726   0.0000       4.691641       127.6660 
 727   0.0000       4.727564       128.6436 
 728   0.0000       4.746652       129.1630 
 729   0.0000       4.766790       129.7110 
 730   0.0000       4.778366       130.0259 
 731   0.0000       4.796718       130.5253 
 732   0.0000       4.803833       130.7189 
 733   0.0000       4.820171       131.1635 
 734   0.0000       4.831589       131.4742 
 735   0.0000       4.849331       131.9570 
 736   0.0000       4.861924       132.2997 
 737   0.0000       4.869053       132.4937 
 738   0.0000       4.881400       132.8296 
 739   0.0000       4.891172       133.0955 
 740   0.0000       4.909095       133.5833 
 741   0.0000       4.921593       133.9234 
 742   0.0000       4.934825       134.2834 
 743   0.0000       4.977840       135.4539 
 744   0.0000       5.002862       136.1348 
 745   0.0000       5.023104       136.6856 
 746   0.0000       5.101076       138.8073 
 747   0.0000       5.124218       139.4371 
 748   0.0000       5.133226       139.6822 
 749   0.0000       5.143364       139.9581 
 750   0.0000       5.150552       140.1537 
 751   0.0000       5.174268       140.7990 
 752   0.0000       5.191845       141.2773 
 753   0.0000       5.196191       141.3955 
 754   0.0000       5.212842       141.8486 
 755   0.0000       5.232806       142.3919 
 756   0.0000       5.241951       142.6407 
 757   0.0000       5.265959       143.2940 
 758   0.0000       5.284023       143.7856 
 759   0.0000       5.296904       144.1361 
 760   0.0000       5.300452       144.2326 
 761   0.0000       5.311805       144.5416 
 762   0.0000       5.315675       144.6469 
 763   0.0000       5.326277       144.9354 
 764   0.0000       5.332821       145.1134 
 765   0.0000       5.345789       145.4663 
 766   0.0000       5.374178       146.2388 
 767   0.0000       5.377209       146.3213 
 768   0.0000       5.384396       146.5169 
 769   0.0000       5.403908       147.0478 
 770   0.0000       5.409126       147.1898 
 771   0.0000       5.411451       147.2531 
 772   0.0000       5.423919       147.5923 
 773   0.0000       5.441110       148.0601 
 774   0.0000       5.457840       148.5154 
 775   0.0000       5.464864       148.7065 
 776   0.0000       5.487913       149.3337 
 777   0.0000       5.497364       149.5909 
 778   0.0000       5.516289       150.1059 
 779   0.0000       5.520861       150.2303 
 780   0.0000       5.544769       150.8808 
 781   0.0000       5.553467       151.1175 
 782   0.0000       5.610400       152.6667 
 783   0.0000       5.615936       152.8174 
 784   0.0000       5.644292       153.5890 
 785   0.0000       5.672702       154.3621 
 786   0.0000       5.689958       154.8316 
 787   0.0000       5.698640       155.0679 
 788   0.0000       5.725296       155.7932 
 789   0.0000       5.729037       155.8950 
 790   0.0000       5.730149       155.9253 
 791   0.0000       5.746466       156.3693 
 792   0.0000       5.762786       156.8134 
 793   0.0000       5.777554       157.2152 
 794   0.0000       5.789467       157.5394 
 795   0.0000       5.794724       157.6824 
 796   0.0000       5.824634       158.4964 
 797   0.0000       5.894465       160.3965 
 798   0.0000       5.951244       161.9416 
 799   0.0000       5.967053       162.3718 
 800   0.0000       6.111563       166.3041 
 801   0.0000       6.170385       167.9047 
 802   0.0000       6.365160       173.2048 
 803   0.0000       6.416896       174.6126 
 804   0.0000       6.434025       175.0787 
 805   0.0000       6.513265       177.2350 
 806   0.0000       6.607812       179.8077 
 807   0.0000       6.665584       181.3798 
 808   0.0000       6.713826       182.6925 
 809   0.0000       6.743613       183.5030 
 810   0.0000       6.788675       184.7292 
 811   0.0000       6.832805       185.9301 
 812   0.0000       6.841336       186.1622 
 813   0.0000       6.940697       188.8660 
 814   0.0000       6.986934       190.1241 
 815   0.0000       7.012602       190.8226 
 816   0.0000       7.054089       191.9515 
 817   0.0000       7.124955       193.8799 
 818   0.0000       7.155487       194.7107 
 819   0.0000       7.269758       197.8202 
 820   0.0000       7.321082       199.2168 
 821   0.0000       7.368430       200.5052 
 822   0.0000       7.409844       201.6321 
 823   0.0000       7.662307       208.5020 
 824   0.0000       7.791816       212.0261 
 825   0.0000       8.295325       225.7273 
 826   0.0000       8.312124       226.1844 
 827   0.0000       8.327012       226.5895 
 828   0.0000       8.338352       226.8981 
 829   0.0000       8.339460       226.9282 
 830   0.0000       8.348523       227.1749 
 831   0.0000       8.362351       227.5511 
 832   0.0000       8.381017       228.0591 
 833   0.0000       8.382268       228.0931 
 834   0.0000       8.400678       228.5941 
 835   0.0000       8.422344       229.1836 
 836   0.0000       8.433215       229.4794 
 837   0.0000       8.457496       230.1402 
 838   0.0000       8.476625       230.6607 
 839   0.0000       8.505464       231.4455 
 840   0.0000      11.053787       300.7888 
 841   0.0000      11.108234       302.2704 
 842   0.0000      11.131543       302.9047 
 843   0.0000      11.157475       303.6103 
 844   0.0000      11.188743       304.4612 
 845   0.0000      11.254599       306.2532 
 846   0.0000      11.345226       308.7193 
 847   0.0000      11.368303       309.3473 
 848   0.0000      11.423220       310.8416 
 849   0.0000      23.412527       637.0873 
 850   0.0000      23.614698       642.5886 
 851   0.0000      23.837228       648.6440 
 852   0.0000      23.939185       651.4183 
 853   0.0000      24.047721       654.3717 
 854   0.0000      24.098174       655.7446 
 855   0.0000      24.164198       657.5413 
 856   0.0000      24.264947       660.2828 
 857   0.0000      24.798412       674.7991 
 858   0.0000      26.073397       709.4932 
 859   0.0000      26.189063       712.6406 
 860   0.0000      26.592865       723.6286 
 861   0.0000      31.520651       857.7205 
 862   0.0000      33.082060       900.2086 
 863   0.0000      33.772508       918.9967 
 864   0.0000      44.846518      1220.3358 
 865   0.0000      44.957241      1223.3487 
 866   0.0000      45.077477      1226.6205 
 867   0.0000      45.284545      1232.2551 
 868   0.0000     205.519629      5592.4734 

                    ********************************
                    * MULLIKEN POPULATION ANALYSIS *
                    ********************************

-----------------------
MULLIKEN ATOMIC CHARGES
-----------------------
   0 C :    1.662778
   1 C :   -1.139157
   2 C :   -1.244466
   3 H :    0.292930
   4 H :    0.266837
   5 H :    0.275098
   6 C :    2.124610
   7 O :   -0.274362
   8 C :    0.826613
   9 O :   -0.552634
  10 C :    0.312892
  11 O :   -0.566552
  12 C :   -1.176148
  13 H :    0.265691
  14 H :    0.370024
  15 H :    0.309431
  16 C :   -1.119557
  17 H :    0.325235
  18 H :    0.256783
  19 H :    0.281944
  20 C :   -1.751278
  21 H :    0.374857
  22 H :    0.436245
  23 H :    0.370484
  24 Au:    0.192815
  25 Cl:   -0.402676
  26 Cl:   -0.308986
  27 Cl:   -0.409452
Sum of atomic charges:   -0.0000000

--------------------------------
MULLIKEN REDUCED ORBITAL CHARGES
--------------------------------
  0 C s       :     2.314116  s :     2.314116
      pz      :     1.323189  p :     1.954957
      px      :     0.805132
      py      :    -0.173364
      dz2     :     0.011258  d :     0.057309
      dxz     :     0.018702
      dyz     :     0.005404
      dx2y2   :     0.004501
      dxy     :     0.017444
      f0      :     0.000857  f :     0.010839
      f+1     :     0.000685
      f-1     :     0.002774
      f+2     :     0.001542
      f-2     :     0.001240
      f+3     :     0.001745
      f-3     :     0.001995
  1 C s       :     4.753929  s :     4.753929
      pz      :     1.469937  p :     2.596624
      px      :     0.383164
      py      :     0.743523
      dz2     :    -0.048026  d :    -0.222304
      dxz     :    -0.064788
      dyz     :     0.006420
      dx2y2   :    -0.069440
      dxy     :    -0.046470
      f0      :     0.000892  f :     0.010908
      f+1     :     0.001419
      f-1     :     0.002031
      f+2     :     0.001370
      f-2     :     0.001620
      f+3     :     0.001489
      f-3     :     0.002088
  2 C s       :     3.795326  s :     3.795326
      pz      :     1.202015  p :     3.375345
      px      :     1.280137
      py      :     0.893193
      dz2     :     0.041010  d :     0.071856
      dxz     :     0.013576
      dyz     :    -0.006393
      dx2y2   :     0.012380
      dxy     :     0.011283
      f0      :     0.000292  f :     0.001938
      f+1     :     0.000151
      f-1     :     0.000349
      f+2     :     0.000228
      f-2     :     0.000154
      f+3     :     0.000350
      f-3     :     0.000413
  3 H s       :     0.669754  s :     0.669754
      pz      :     0.011378  p :     0.034967
      px      :     0.015716
      py      :     0.007873
      dz2     :     0.000186  d :     0.002348
      dxz     :     0.000521
      dyz     :     0.000269
      dx2y2   :     0.000838
      dxy     :     0.000534
  4 H s       :     0.699962  s :     0.699962
      pz      :     0.002273  p :     0.030844
      px      :     0.014517
      py      :     0.014053
      dz2     :     0.000549  d :     0.002357
      dxz     :     0.000459
      dyz     :     0.000288
      dx2y2   :     0.000551
      dxy     :     0.000509
  5 H s       :     0.672385  s :     0.672385
      pz      :     0.022862  p :     0.050189
      px      :     0.019443
      py      :     0.007884
      dz2     :     0.000691  d :     0.002328
      dxz     :     0.000704
      dyz     :     0.000775
      dx2y2   :     0.000062
      dxy     :     0.000095
  6 C s       :     2.654224  s :     2.654224
      pz      :     0.547809  p :     1.254357
      px      :     0.293437
      py      :     0.413111
      dz2     :     0.037177  d :    -0.046636
      dxz     :    -0.049772
      dyz     :     0.123668
      dx2y2   :    -0.095480
      dxy     :    -0.062229
      f0      :     0.001941  f :     0.013445
      f+1     :     0.003060
      f-1     :     0.001094
      f+2     :     0.001920
      f-2     :     0.002296
      f+3     :     0.001442
      f-3     :     0.001692
  7 O s       :     3.837295  s :     3.837295
      pz      :     1.526676  p :     4.445726
      px      :     1.427305
      py      :     1.491745
      dz2     :     0.003050  d :    -0.010756
      dxz     :    -0.003636
      dyz     :    -0.003197
      dx2y2   :    -0.004143
      dxy     :    -0.002830
      f0      :     0.000256  f :     0.002097
      f+1     :     0.000377
      f-1     :     0.000183
      f+2     :     0.000367
      f-2     :     0.000383
      f+3     :     0.000272
      f-3     :     0.000259
  8 C s       :     3.193253  s :     3.193253
      pz      :     0.630987  p :     1.806176
      px      :     0.607494
      py      :     0.567695
      dz2     :     0.006959  d :     0.148979
      dxz     :    -0.022768
      dyz     :     0.077801
      dx2y2   :     0.004916
      dxy     :     0.082072
      f0      :     0.001806  f :     0.024979
      f+1     :     0.001457
      f-1     :     0.004664
      f+2     :     0.003510
      f-2     :     0.003565
      f+3     :     0.004518
      f-3     :     0.005458
  9 O s       :     4.022925  s :     4.022925
      pz      :     1.554568  p :     4.497091
      px      :     1.609446
      py      :     1.333077
      dz2     :     0.001500  d :     0.030650
      dxz     :     0.001737
      dyz     :     0.012428
      dx2y2   :     0.003875
      dxy     :     0.011110
      f0      :     0.000179  f :     0.001967
      f+1     :     0.000023
      f-1     :     0.000372
      f+2     :     0.000354
      f-2     :     0.000117
      f+3     :     0.000505
      f-3     :     0.000416
 10 C s       :     3.687629  s :     3.687629
      pz      :     0.592183  p :     1.877779
      px      :     0.602752
      py      :     0.682844
      dz2     :     0.048774  d :     0.103747
      dxz     :     0.009164
      dyz     :     0.032601
      dx2y2   :    -0.067887
      dxy     :     0.081095
      f0      :     0.001131  f :     0.017954
      f+1     :     0.003550
      f-1     :     0.000988
      f+2     :     0.002165
      f-2     :     0.003416
      f+3     :     0.002191
      f-3     :     0.004513
 11 O s       :     4.094747  s :     4.094747
      pz      :     1.303002  p :     4.440776
      px      :     1.302801
      py      :     1.834972
      dz2     :     0.012471  d :     0.029079
      dxz     :     0.006778
      dyz     :    -0.001559
      dx2y2   :     0.007396
      dxy     :     0.003993
      f0      :     0.000110  f :     0.001951
      f+1     :     0.000524
      f-1     :     0.000020
      f+2     :     0.000361
      f-2     :     0.000272
      f+3     :     0.000333
      f-3     :     0.000331
 12 C s       :     3.695211  s :     3.695211
      pz      :     1.178650  p :     3.385875
      px      :     1.175206
      py      :     1.032019
      dz2     :     0.031325  d :     0.092696
      dxz     :     0.025945
      dyz     :     0.006444
      dx2y2   :     0.017292
      dxy     :     0.011690
      f0      :     0.000410  f :     0.002366
[...]
-------------------------------
  0 C s       :     2.699596  s :     2.699596
      pz      :     0.839037  p :     2.545163
      px      :     0.760192
      py      :     0.945935
      dz2     :     0.129594  d :     0.872899
      dxz     :     0.099377
      dyz     :     0.193206
      dx2y2   :     0.202011
      dxy     :     0.248712
      f0      :     0.004435  f :     0.049157
      f+1     :     0.002003
      f-1     :     0.008657
      f+2     :     0.007072
      f-2     :     0.007670
      f+3     :     0.010294
      f-3     :     0.009026
  1 C s       :     2.667135  s :     2.667135
      pz      :     0.839413  p :     2.557118
      px      :     0.786217
      py      :     0.931488
      dz2     :     0.124536  d :     0.837575
      dxz     :     0.149675
      dyz     :     0.156342
      dx2y2   :     0.230041
      dxy     :     0.176983
      f0      :     0.004740  f :     0.050764
      f+1     :     0.004163
      f-1     :     0.006776
      f+2     :     0.006703
      f-2     :     0.009394
      f+3     :     0.009693
      f-3     :     0.009294
  2 C s       :     2.631782  s :     2.631782
      pz      :     0.921576  p :     2.717159
      px      :     0.924079
      py      :     0.871504
      dz2     :     0.102665  d :     0.466552
      dxz     :     0.062370
      dyz     :     0.088138
      dx2y2   :     0.085153
      dxy     :     0.128225
      f0      :     0.004125  f :     0.032230
      f+1     :     0.003121
      f-1     :     0.004961
      f+2     :     0.005703
      f-2     :     0.003882
      f+3     :     0.004025
      f-3     :     0.006414
  3 H s       :     0.675656  s :     0.675656
      pz      :     0.074753  p :     0.280346
      px      :     0.117034
      py      :     0.088560
      dz2     :     0.002892  d :     0.030388
      dxz     :     0.006621
      dyz     :     0.003178
      dx2y2   :     0.009334
      dxy     :     0.008363
  4 H s       :     0.678076  s :     0.678076
      pz      :     0.102115  p :     0.306366
      px      :     0.116771
      py      :     0.087479
      dz2     :     0.006386  d :     0.030446
      dxz     :     0.006862
      dyz     :     0.004070
      dx2y2   :     0.006633
      dxy     :     0.006494
  5 H s       :     0.685095  s :     0.685095
      pz      :     0.126723  p :     0.275812
      px      :     0.079493
      py      :     0.069596
      dz2     :     0.010759  d :     0.030236
      dxz     :     0.009516
      dyz     :     0.008250
      dx2y2   :     0.000757
      dxy     :     0.000954
  6 C s       :     2.576688  s :     2.576688
      pz      :     0.813388  p :     2.449963
      px      :     0.767532
      py      :     0.869043
      dz2     :     0.263697  d :     1.245461
      dxz     :     0.290297
      dyz     :     0.216022
      dx2y2   :     0.219785
      dxy     :     0.255660
      f0      :     0.013676  f :     0.095041
      f+1     :     0.018682
      f-1     :     0.009667
      f+2     :     0.015015
      f-2     :     0.015340
      f+3     :     0.010849
      f-3     :     0.011813
  7 O s       :     3.148314  s :     3.148314
      pz      :     1.425259  p :     4.276777
      px      :     1.370236
      py      :     1.481282
      dz2     :     0.101147  d :     0.533908
      dxz     :     0.107014
      dyz     :     0.090140
      dx2y2   :     0.117750
      dxy     :     0.117857
      f0      :     0.000760  f :     0.006516
      f+1     :     0.000844
      f-1     :     0.000705
      f+2     :     0.000894
      f-2     :     0.001166
      f+3     :     0.000993
      f-3     :     0.001155
  8 C s       :     2.621318  s :     2.621318
      pz      :     0.721863  p :     2.327157
      px      :     0.733173
      py      :     0.872122
      dz2     :     0.212197  d :     1.352572
      dxz     :     0.138657
      dyz     :     0.328528
      dx2y2   :     0.320049
      dxy     :     0.353141
      f0      :     0.012538  f :     0.157631
      f+1     :     0.006749
      f-1     :     0.030198
      f+2     :     0.019412
      f-2     :     0.024023
      f+3     :     0.030085
      f-3     :     0.034627
  9 O s       :     3.298952  s :     3.298952
      pz      :     1.399258  p :     4.310236
      px      :     1.427702
      py      :     1.483276
      dz2     :     0.038708  d :     0.255708
      dxz     :     0.018004
      dyz     :     0.061942
      dx2y2   :     0.072150
      dxy     :     0.064904
      f0      :     0.000605  f :     0.006465
      f+1     :     0.000071
      f-1     :     0.001146
      f+2     :     0.001071
      f-2     :     0.000420
      f+3     :     0.001448
      f-3     :     0.001704
 10 C s       :     2.642692  s :     2.642692
      pz      :     0.674246  p :     2.367741
      px      :     0.828115
      py      :     0.865380
      dz2     :     0.172159  d :     1.245112
      dxz     :     0.220381
      dyz     :     0.214997
      dx2y2   :     0.280831
      dxy     :     0.356743
      f0      :     0.008339  f :     0.112168
      f+1     :     0.016688
      f-1     :     0.006468
      f+2     :     0.015609
      f-2     :     0.020910
      f+3     :     0.014020
      f-3     :     0.030135
 11 O s       :     3.315835  s :     3.315835
      pz      :     1.291313  p :     4.314427
      px      :     1.423426
      py      :     1.599687
      dz2     :     0.027804  d :     0.270812
      dxz     :     0.071586
      dyz     :     0.039510
      dx2y2   :     0.049745
      dxy     :     0.082167
      f0      :     0.000510  f :     0.006488
      f+1     :     0.001000
      f-1     :     0.000035
      f+2     :     0.001534
      f-2     :     0.001228
      f+3     :     0.000941
      f-3     :     0.001240
 12 C s       :     2.622294  s :     2.622294
      pz      :     0.911083  p :     2.686325
      px      :     0.902612
      py      :     0.872630
      dz2     :     0.101036  d :     0.437010
      dxz     :     0.052269
      dyz     :     0.068374
      dx2y2   :     0.117855
      dxy     :     0.097475
      f0      :     0.005722  f :     0.030219
      f+1     :     0.002128
      f-1     :     0.002485
      f+2     :     0.004167
      f-2     :     0.005663
      f+3     :     0.006749
      f-3     :     0.003304
 13 H s       :     0.670884  s :     0.670884
      pz      :     0.136461  p :     0.299972
      px      :     0.083946
      py      :     0.079565
      dz2     :     0.010928  d :     0.030639
      dxz     :     0.010009
      dyz     :     0.009597
      dx2y2   :     0.000060
      dxy     :     0.000046
 14 H s       :     0.686011  s :     0.686011
      pz      :     0.082167  p :     0.273411
      px      :     0.085814
      py      :     0.105431
      dz2     :     0.004850  d :     0.030887
      dxz     :     0.002720
      dyz     :     0.007157
      dx2y2   :     0.008587
      dxy     :     0.007574
 15 H s       :     0.679275  s :     0.679275
      pz      :     0.082966  p :     0.283705
      px      :     0.123500
      py      :     0.077239
      dz2     :     0.004059  d :     0.030563
      dxz     :     0.009403
      dyz     :     0.000516
      dx2y2   :     0.007662
      dxy     :     0.008923
 16 C s       :     2.625195  s :     2.625195
      pz      :     0.886868  p :     2.691825
      px      :     0.885295
      py      :     0.919662
      dz2     :     0.064669  d :     0.405422
      dxz     :     0.107108
      dyz     :     0.079196
      dx2y2   :     0.039371
      dxy     :     0.115077
      f0      :     0.003696  f :     0.030009
      f+1     :     0.004900
      f-1     :     0.003897
      f+2     :     0.004524
      f-2     :     0.005457
      f+3     :     0.004591
      f-3     :     0.002944
 17 H s       :     0.690125  s :     0.690125
      pz      :     0.076112  p :     0.274605
      px      :     0.087915
      py      :     0.110579
      dz2     :     0.003408  d :     0.030753
      dxz     :     0.003931
      dyz     :     0.006760
      dx2y2   :     0.008385
      dxy     :     0.008270
 18 H s       :     0.683096  s :     0.683096
      pz      :     0.105491  p :     0.275221
      px      :     0.085577
      py      :     0.084153
      dz2     :     0.008872  d :     0.030381
      dxz     :     0.007511
      dyz     :     0.007204
      dx2y2   :     0.003157
      dxy     :     0.003638
 19 H s       :     0.687343  s :     0.687343
      pz      :     0.081692  p :     0.275946
      px      :     0.089630
      py      :     0.104624
      dz2     :     0.004332  d :     0.030458
      dxz     :     0.004787
      dyz     :     0.005657
      dx2y2   :     0.008138
      dxy     :     0.007544
 20 C s       :     2.610053  s :     2.610053
      pz      :     0.832544  p :     2.637812
      px      :     0.902568
      py      :     0.902700
      dz2     :     0.101905  d :     0.476105
      dxz     :     0.133288
      dyz     :     0.083361
      dx2y2   :     0.058812
      dxy     :     0.098740
      f0      :     0.005429  f :     0.029893
      f+1     :     0.004635
      f-1     :     0.005945
      f+2     :     0.004499
      f-2     :     0.003672
      f+3     :     0.003858
      f-3     :     0.001855
 21 H s       :     0.681059  s :     0.681059
      pz      :     0.071465  p :     0.269074
      px      :     0.099536
      py      :     0.098073
      dz2     :     0.003984  d :     0.030331
      dxz     :     0.005934
      dyz     :     0.004527
      dx2y2   :     0.008805
      dxy     :     0.007081
 22 H s       :     0.670248  s :     0.670248
      pz      :     0.088807  p :     0.280370
      px      :     0.112632
      py      :     0.078931
      dz2     :     0.007325  d :     0.030829
      dxz     :     0.008577
      dyz     :     0.004009
      dx2y2   :     0.004705
      dxy     :     0.006213
 23 H s       :     0.669571  s :     0.669571
      pz      :     0.088806  p :     0.296630
      px      :     0.085056
      py      :     0.122768
      dz2     :     0.003222  d :     0.030989
      dxz     :     0.001856
      dyz     :     0.007591
      dx2y2   :     0.009023
      dxy     :     0.009297
 24 Aus       :     2.214118  s :     2.214118
      pz      :     2.276962  p :     6.843220
      px      :     2.329807
      py      :     2.236451
      dz2     :     1.924418  d :     9.514303
      dxz     :     1.910455
      dyz     :     1.955906
      dx2y2   :     1.926876
      dxy     :     1.796647
      f0      :     0.011979  f :     0.123810
      f+1     :     0.021701
      f-1     :     0.018488
      f+2     :     0.012849
      f-2     :     0.025532
      f+3     :     0.013403
      f-3     :     0.019857
      g0      :     0.000148  g :     0.001608
      g+1     :     0.000161
      g-1     :     0.000160
      g+2     :     0.000162
      g-2     :     0.000276
      g+3     :     0.000147
      g-3     :     0.000208
      g+4     :     0.000156
      g-4     :     0.000191
 25 Cls       :     5.669305  s :     5.669305
      pz      :     3.607566  p :    11.115357
      px      :     3.762720
      py      :     3.745071
      dz2     :     0.035426  d :     0.187648
      dxz     :     0.049449
      dyz     :     0.042666
      dx2y2   :     0.034910
      dxy     :     0.025197
      f0      :     0.000882  f :     0.005706
      f+1     :     0.000880
      f-1     :     0.001144
      f+2     :     0.000974
      f-2     :     0.001145
      f+3     :     0.000340
      f-3     :     0.000341
 26 Cls       :     5.690668  s :     5.690668
      pz      :     3.873119  p :    11.169743
      px      :     3.526642
      py      :     3.769982
      dz2     :     0.022814  d :     0.201312
      dxz     :     0.045782
      dyz     :     0.032478
      dx2y2   :     0.053495
      dxy     :     0.046743
      f0      :     0.000665  f :     0.006684
      f+1     :     0.000951
      f-1     :     0.000343
      f+2     :     0.000507
      f-2     :     0.000976
      f+3     :     0.001505
      f-3     :     0.001737
 27 Cls       :     5.675982  s :     5.675982
      pz      :     3.622298  p :    11.122017
      px      :     3.775324
      py      :     3.724395
      dz2     :     0.033672  d :     0.190414
      dxz     :     0.042937
      dyz     :     0.055454
      dx2y2   :     0.029331
      dxy     :     0.029020
      f0      :     0.000911  f :     0.006028
      f+1     :     0.000910
      f-1     :     0.001184
      f+2     :     0.001049
      f-2     :     0.001226
      f+3     :     0.000362
      f-3     :     0.000386


                      *****************************
                      * MAYER POPULATION ANALYSIS *
                      *****************************

  NA   - Mulliken gross atomic population
  ZA   - Total nuclear charge
  QA   - Mulliken gross atomic charge
  VA   - Mayer's total valence
  BVA  - Mayer's bonded valence
  FA   - Mayer's free valence

  ATOM       NA         ZA         QA         VA         BVA        FA
  0 C      4.3372     6.0000     1.6628     0.4064     0.4064    -0.0000
  1 C      7.1392     6.0000    -1.1392     1.7108     1.7108     0.0000
  2 C      7.2445     6.0000    -1.2445     3.3052     3.3052    -0.0000
  3 H      0.7071     1.0000     0.2929     0.9597     0.9597    -0.0000
  4 H      0.7332     1.0000     0.2668     1.0043     1.0043     0.0000
  5 H      0.7249     1.0000     0.2751     1.0096     1.0096     0.0000
  6 C      3.8754     6.0000     2.1246     1.5692     1.5692     0.0000
  7 O      8.2744     8.0000    -0.2744     1.4973     1.4973     0.0000
  8 C      5.1734     6.0000     0.8266     2.9247     2.9247     0.0000
  9 O      8.5526     8.0000    -0.5526     1.6672     1.6672    -0.0000
 10 C      5.6871     6.0000     0.3129     1.8950     1.8950    -0.0000
 11 O      8.5666     8.0000    -0.5666     1.6227     1.6227    -0.0000
 12 C      7.1761     6.0000    -1.1761     3.5641     3.5641    -0.0000
 13 H      0.7343     1.0000     0.2657     0.9920     0.9920    -0.0000
 14 H      0.6300     1.0000     0.3700     0.9237     0.9237     0.0000
 15 H      0.6906     1.0000     0.3094     0.9494     0.9494     0.0000
 16 C      7.1196     6.0000    -1.1196     3.4000     3.4000    -0.0000
 17 H      0.6748     1.0000     0.3252     0.9775     0.9775     0.0000
 18 H      0.7432     1.0000     0.2568     0.9880     0.9880    -0.0000
 19 H      0.7181     1.0000     0.2819     0.9833     0.9833    -0.0000
 20 C      7.7513     6.0000    -1.7513     3.0474     3.0474    -0.0000
 21 H      0.6251     1.0000     0.3749     0.9759     0.9759     0.0000
 22 H      0.5638     1.0000     0.4362     0.8990     0.8990     0.0000
 23 H      0.6295     1.0000     0.3705     0.9903     0.9903     0.0000
 24 Au    18.8072    19.0000     0.1928     3.1677     3.1677    -0.0000
 25 Cl    17.4027    17.0000    -0.4027     0.9152     0.9152    -0.0000
 26 Cl    17.3090    17.0000    -0.3090     0.9527     0.9527     0.0000
 27 Cl    17.4095    17.0000    -0.4095     0.9078     0.9078    -0.0000

  Mayer bond orders larger than 0.100000
B(  0-C ,  1-C ) :   0.3758 B(  0-C ,  2-C ) :   0.5776 B(  0-C ,  9-O ) :  -0.1494 
B(  0-C , 10-C ) :  -0.1259 B(  0-C , 20-C ) :  -0.1354 B(  0-C , 25-Cl) :  -0.5169 
B(  0-C , 27-Cl) :   0.3699 B(  1-C ,  2-C ) :  -0.2098 B(  1-C ,  6-C ) :   0.8329 
B(  1-C ,  7-O ) :   0.1302 B(  1-C ,  8-C ) :  -0.1009 B(  1-C , 10-C ) :   0.1907 
B(  1-C , 20-C ) :   0.1795 B(  1-C , 24-Au) :   0.7298 B(  1-C , 25-Cl) :   0.2068 
B(  1-C , 27-Cl) :  -0.5708 B(  2-C ,  3-H ) :   1.0101 B(  2-C ,  4-H ) :   0.9394 
B(  2-C ,  5-H ) :   0.9668 B(  6-C ,  7-O ) :   0.3374 B(  6-C ,  8-C ) :  -0.1145 
B(  6-C ,  9-O ) :   0.2104 B(  6-C , 10-C ) :   0.1998 B(  6-C , 11-O ) :  -0.2277 
B(  6-C , 20-C ) :   0.3565 B(  6-C , 24-Au) :  -0.1504 B(  6-C , 25-Cl) :   0.2537 
B(  7-O ,  8-C ) :   0.9958 B(  8-C ,  9-O ) :   1.6062 B(  8-C , 16-C ) :   0.5959 
B( 10-C , 11-O ) :   1.5744 B( 10-C , 12-C ) :   0.5790 B( 10-C , 20-C ) :  -0.1541 
B( 10-C , 24-Au) :  -0.1408 B( 12-C , 13-H ) :   0.9964 B( 12-C , 14-H ) :   0.9513 
B( 12-C , 15-H ) :   0.9537 B( 16-C , 17-H ) :   0.9917 B( 16-C , 18-H ) :   0.9732 
B( 16-C , 19-H ) :   0.9774 B( 20-C , 21-H ) :   0.9221 B( 20-C , 22-H ) :   0.8722 
B( 20-C , 23-H ) :   0.9152 B( 24-Au, 25-Cl) :   0.9053 B( 24-Au, 26-Cl) :   0.7992 
B( 24-Au, 27-Cl) :   0.8752 B( 25-Cl, 27-Cl) :   0.1232 

-------
TIMINGS
-------

Total SCF time: 0 days 0 hours 14 min 51 sec 

Total time                  ....     891.424 sec
Sum of individual times     ....     889.893 sec  ( 99.8%)

Fock matrix formation       ....     881.996 sec  ( 98.9%)
  XC integration            ....      12.818 sec  (  1.5% of F)
    Basis function eval.    ....       1.225 sec  (  9.6% of XC)
    Density eval.           ....       4.360 sec  ( 34.0% of XC)
    XC-Functional eval.     ....       0.122 sec  (  0.9% of XC)
    XC-Potential eval.      ....       5.694 sec  ( 44.4% of XC)
Diagonalization             ....       3.268 sec  (  0.4%)
Density matrix formation    ....       0.115 sec  (  0.0%)
Population analysis         ....       0.169 sec  (  0.0%)
Initial guess               ....       1.809 sec  (  0.2%)
Orbital Transformation      ....       0.000 sec  (  0.0%)
Orbital Orthonormalization  ....       0.000 sec  (  0.0%)
DIIS solution               ....       1.647 sec  (  0.2%)
Grid generation             ....       0.889 sec  (  0.1%)

-------------------------   --------------------
FINAL SINGLE POINT ENERGY     -2092.120732590989
-------------------------   --------------------


                            ***************************************
                            *     ORCA property calculations      *
                            ***************************************

                                    ---------------------
                                    Active property flags
                                    ---------------------
   (+) Dipole Moment


------------------------------------------------------------------------------
                       ORCA ELECTRIC PROPERTIES CALCULATION
------------------------------------------------------------------------------

Dipole Moment Calculation                       ... on
Quadrupole Moment Calculation                   ... off
Polarizability Calculation                      ... off
GBWName                                         ... TMB28_C1.gbw
Electron density file                           ... TMB28_C1.scfp
The origin for moment calculation is the CENTER OF MASS  = ( 0.332761, -0.001158 -0.039568)

-------------
DIPOLE MOMENT
-------------
                                X             Y             Z
Electronic contribution:    184.81284       8.38665     -26.29202
Nuclear contribution   :   -188.12551      -7.68230      26.09317
                        -----------------------------------------
Total Dipole Moment    :     -3.31267       0.70436      -0.19885
                        -----------------------------------------
Magnitude (a.u.)       :      3.39256
Magnitude (Debye)      :      8.62319



--------------------
Rotational spectrum 
--------------------
 
Rotational constants in cm-1:     0.016324     0.007365     0.006921 
Rotational constants in MHz :   489.388468   220.811279   207.480820 

 Dipole components along the rotational axes: 
x,y,z [a.u.] :    -3.319283     0.637206    -0.292867 
x,y,z [Debye]:    -8.436947     1.619649    -0.744409 

 

Timings for individual modules:

Sum of individual times         ...      895.700 sec (=  14.928 min)
GTO integral calculation        ...        3.878 sec (=   0.065 min)   0.4 %
SCF iterations                  ...      891.822 sec (=  14.864 min)  99.6 %
                             ****ORCA TERMINATED NORMALLY****
TOTAL RUN TIME: 0 days 0 hours 14 minutes 56 seconds 327 msec
