
                                 *****************
                                 * O   R   C   A *
                                 *****************

           --- An Ab Initio, DFT and Semiempirical electronic structure package ---

                  #######################################################
                  #                        -***-                        #
                  #          Department of theory and spectroscopy      #
                  #               Directorship: Frank Neese             #
                  #        Max Planck Institute fuer Kohlenforschung    #
                  #                Kaiser Wilhelm Platz 1               #
                  #                 D-45470 Muelheim/Ruhr               #
                  #                      Germany                        #
                  #                                                     #
                  #                  All rights reserved                #
                  #                        -***-                        #
                  #######################################################


                         Program Version 4.2.0 -  RELEASE  -


 With contributions from (in alphabetic order):
   Daniel Aravena         : Magnetic Suceptibility
   Michael Atanasov       : Ab Initio Ligand Field Theory (pilot matlab implementation)
   Alexander A. Auer      : GIAO ZORA, VPT2
   Ute Becker             : Parallelization
   Giovanni Bistoni       : ED, misc. LED, open-shell LED, HFLED
   Martin Brehm           : Molecular dynamics
   Dmytro Bykov           : SCF Hessian
   Vijay G. Chilkuri      : MRCI spin determinant printing, contributions to CSF-ICE
   Dipayan Datta          : RHF DLPNO-CCSD density
   Achintya Kumar Dutta   : EOM-CC, STEOM-CC
   Dmitry Ganyushin       : Spin-Orbit,Spin-Spin,Magnetic field MRCI
   Miquel Garcia          : C-PCM Hessian, Gaussian charge scheme
   Yang Guo               : DLPNO-NEVPT2, CIM, IAO-localization
   Andreas Hansen         : Spin unrestricted coupled pair/coupled cluster methods
   Benjamin Helmich-Paris : CASSCF linear response (MC-RPA)
   Lee Huntington         : MR-EOM, pCC
   Robert Izsak           : Overlap fitted RIJCOSX, COSX-SCS-MP3, EOM
   Christian Kollmar      : KDIIS, OOCD, Brueckner-CCSD(T), CCSD density
   Simone Kossmann        : Meta GGA functionals, TD-DFT gradient, OOMP2, MP2 Hessian
   Martin Krupicka        : AUTO-CI
   Lucas Lang             : DCDCAS
   Dagmar Lenk            : GEPOL surface, SMD
   Dimitrios Liakos       : Extrapolation schemes; Compound Job, initial MDCI parallelization
   Dimitrios Manganas     : Further ROCIS development; embedding schemes
   Dimitrios Pantazis     : SARC Basis sets
   Taras Petrenko         : DFT Hessian,TD-DFT gradient, ASA, ECA, R-Raman, ABS, FL, XAS/XES, NRVS
   Peter Pinski           : DLPNO-MP2, DLPNO-MP2 Gradient
   Christoph Reimann      : Effective Core Potentials
   Marius Retegan         : Local ZFS, SOC
   Christoph Riplinger    : Optimizer, TS searches, QM/MM, DLPNO-CCSD(T), (RO)-DLPNO pert. Triples
   Tobias Risthaus        : Range-separated hybrids, TD-DFT gradient, RPA, STAB
   Michael Roemelt        : Original ROCIS implementation
   Masaaki Saitow         : Open-shell DLPNO-CCSD energy and density
   Barbara Sandhoefer     : DKH picture change effects
   Avijit Sen             : IP-ROCIS
   Kantharuban Sivalingam : CASSCF convergence, NEVPT2, FIC-MRCI
   Bernardo de Souza      : ESD, SOC TD-DFT
   Georgi Stoychev        : AutoAux, RI-MP2 NMR
   Willem Van den Heuvel  : Paramagnetic NMR
   Boris Wezisla          : Elementary symmetry handling
   Frank Wennmohs         : Technical directorship


 We gratefully acknowledge several colleagues who have allowed us to
 interface, adapt or use parts of their codes:
   Stefan Grimme, W. Hujo, H. Kruse,             : VdW corrections, initial TS optimization,
                  C. Bannwarth                     DFT functionals, gCP, sTDA/sTD-DF
   Ed Valeev, F. Pavosevic, A. Kumar             : LibInt (2-el integral package), F12 methods
   Garnet Chan, S. Sharma, J. Yang, R. Olivares  : DMRG
   Ulf Ekstrom                                   : XCFun DFT Library
   Mihaly Kallay                                 : mrcc  (arbitrary order and MRCC methods)
   Andreas Klamt, Michael Diedenhofen            : otool_cosmo (COSMO solvation model)
   Jiri Pittner, Ondrej Demel                    : Mk-CCSD
   Frank Weinhold                                : gennbo (NPA and NBO analysis)
   Christopher J. Cramer and Donald G. Truhlar   : smd solvation model
   Lars Goerigk                                  : TD-DFT with DH, B97 family of functionals
   V. Asgeirsson, H. Jonsson                     : NEB implementation
   FAccTs GmbH                                   : IRC, NEB, NEB-TS, Multilevel, MM, QM/MM, CI optimization
   S Lehtola, MJT Oliveira, MAL Marques          : LibXC Library


 Your calculation uses the libint2 library for the computation of 2-el integrals
 For citations please refer to: http://libint.valeyev.net

 Your ORCA version has been built with support for libXC version: 4.2.3
 For citations please refer to: https://tddft.org/programs/libxc/

 This ORCA versions uses:
   CBLAS   interface :  Fast vector & matrix operations
   LAPACKE interface :  Fast linear algebra routines
   SCALAPACK package :  Parallel linear algebra routines


Your calculation utilizes the DFT-NL dispersion correction.
Cite in your paper:
Vydrov, O. A.; Van Voorhis, T. J. Chem. Phys. 2010, 133, 244103
Hujo, W.; Grimme, S. J. Chem. Theory Comput. 2011, 7, 3866 
   

----- Orbital basis set information -----
Your calculation utilizes the basis: def2-TZVPPD
   F. Weigend and R. Ahlrichs, Phys. Chem. Chem. Phys. 7, 3297 (2005).
   D. Rappoport and F. Furche, J. Chem. Phys. 133 134105 (2010).

----- AuxJK basis set information -----
Your calculation utilizes the auxiliary basis: def2/JK
   H-Ba, Hf-Rn: F. Weigend, J. Comput. Chem. 29, 167 (2008).

================================================================================
                                        WARNINGS
                       Please study these warnings very carefully!
================================================================================


WARNING: your system is open-shell and RHF/RKS was chosen
  ===> : WILL SWITCH to UHF/UKS


INFO   : the flag for use of LIBINT has been found!

================================================================================
                                       INPUT FILE
================================================================================
NAME = TMD03_F.in
|  1> #
|  2> # TMD03_F wB97M-V/Def2-TZVPPD
|  3> #
|  4> ! wb97m-v def2-tzvppd def2/jk grid4 nofinalgrid
|  5> 
|  6> *xyz 0 2
|  7> F        0.000000    0.000000    0.000000 
|  8> *
|  9> 
| 10> %maxcore 5000
| 11> 
| 12> %pal
| 13> nprocs = 24
| 14> end
| 15> 
| 16> 
| 17>                          ****END OF INPUT****
================================================================================

                       ****************************
                       * Single Point Calculation *
                       ****************************

---------------------------------
CARTESIAN COORDINATES (ANGSTROEM)
---------------------------------
  F      0.000000    0.000000    0.000000

----------------------------
CARTESIAN COORDINATES (A.U.)
----------------------------
  NO LB      ZA    FRAG     MASS         X           Y           Z
   0 F     9.0000    0    18.998    0.000000    0.000000    0.000000

--------------------------------
INTERNAL COORDINATES (ANGSTROEM)
--------------------------------
 F      0   0   0     0.000000000000     0.00000000     0.00000000

---------------------------
INTERNAL COORDINATES (A.U.)
---------------------------
 F      0   0   0     0.000000000000     0.00000000     0.00000000

---------------------
BASIS SET INFORMATION
---------------------
There are 1 groups of distinct atoms

 Group   1 Type F   : 12s7p3d1f contracted to 6s4p3d1f pattern {621111/4111/111/1}

Atom   0F    basis set group =>   1
----------------------------------
AUXILIARY/JK BASIS SET INFORMATION
----------------------------------
There are 1 groups of distinct atoms

 Group   1 Type F   : 14s10p6d2f1g contracted to 10s8p4d2f1g pattern {5111111111/31111111/3111/11/1}

Atom   0F    basis set group =>   1


           ************************************************************
           *        Program running with 24 parallel MPI-processes    *
           *              working on a common directory               *
           ************************************************************
------------------------------------------------------------------------------
                           ORCA GTO INTEGRAL CALCULATION
------------------------------------------------------------------------------

                         BASIS SET STATISTICS AND STARTUP INFO

 # of primitive gaussian shells          ...   23
 # of primitive gaussian functions       ...   55
 # of contracted shells                  ...   14
 # of contracted basis functions         ...   40
 Highest angular momentum                ...    3
 Maximum contraction depth               ...    6
 Integral package used                   ... LIBINT
 Integral threshhold            Thresh   ...  1.000e-10
 Primitive cut-off              TCut     ...  1.000e-11


------------------------------ INTEGRAL EVALUATION ----------------------------


 * One electron integrals 
 Pre-screening matrix                    ... done
 Shell pair data                         ... done (   0.000 sec)



           ************************************************************
           *        Program running with 24 parallel MPI-processes    *
           *              working on a common directory               *
           ************************************************************
-------------------------------------------------------------------------------
                                 ORCA SCF
-------------------------------------------------------------------------------

------------
SCF SETTINGS
------------
Hamiltonian:
 Density Functional     Method          .... DFT(GTOs)
 Exchange Functional    Exchange        .... WB97M-V
 Correlation Functional Correlation     .... WB97M-V
 Gradients option       PostSCFGGA      .... off
 Hybrid DFT is turned on
   Fraction HF Exchange ScalHFX         ....  0.150000
   Scaling of DF-GGA-X  ScalDFX         ....  0.000000
   Scaling of DF-GGA-C  ScalDFC         ....  1.000000
   Scaling of DF-LDA-C  ScalLDAC        ....  1.000000
   Perturbative correction              ....  0.000000
   Density functional embedding theory  .... OFF
 Long-range corrected/Screened/Range-Separated Hybrid DFT is turned on
   Amount of maximum screened exact exchange              ....  0.850000
   Range separation parameter mu (erf(mu*r12)/r12)        ....  0.300000
   NL short-range parameter             ....  6.000000
   NL long-range parameter              ....  0.010000


General Settings:
 Integral files         IntName         .... TMD03_F
 Hartree-Fock type      HFTyp           .... UHF
 Total Charge           Charge          ....    0
 Multiplicity           Mult            ....    2
 Number of Electrons    NEL             ....    9
 Basis Dimension        Dim             ....   40
 Nuclear Repulsion      ENuc            ....      0.0000000000 Eh

Convergence Acceleration:
 DIIS                   CNVDIIS         .... on
   Start iteration      DIISMaxIt       ....    12
   Startup error        DIISStart       ....  0.200000
   # of expansion vecs  DIISMaxEq       ....     5
   Bias factor          DIISBfac        ....   1.050
   Max. coefficient     DIISMaxC        ....  10.000
 Newton-Raphson         CNVNR           .... off
 SOSCF                  CNVSOSCF        .... off
 Level Shifting         CNVShift        .... on
   Level shift para.    LevelShift      ....    0.2500
   Turn off err/grad.   ShiftErr        ....    0.0010
 Zerner damping         CNVZerner       .... off
 Static damping         CNVDamp         .... on
   Fraction old density DampFac         ....    0.7000
   Max. Damping (<1)    DampMax         ....    0.9800
   Min. Damping (>=0)   DampMin         ....    0.0000
   Turn off err/grad.   DampErr         ....    0.1000
 Fernandez-Rico         CNVRico         .... off

SCF Procedure:
 Maximum # iterations   MaxIter         ....   125
 SCF integral mode      SCFMode         .... Direct
   Integral package                     .... LIBINT
 Reset frequency        DirectResetFreq ....    20
 Integral Threshold     Thresh          ....  1.000e-10 Eh
 Primitive CutOff       TCut            ....  1.000e-11 Eh

Convergence Tolerance:
 Convergence Check Mode ConvCheckMode   .... Total+1el-Energy
 Convergence forced     ConvForced      .... 0
 Energy Change          TolE            ....  1.000e-06 Eh
 1-El. energy change                    ....  1.000e-03 Eh
 DIIS Error             TolErr          ....  1.000e-06


Diagonalization of the overlap matrix:
Smallest eigenvalue                        ... 1.553e-02
Time for diagonalization                   ...    0.001 sec
Threshold for overlap eigenvalues          ... 1.000e-08
Number of eigenvalues below threshold      ... 0
Time for construction of square roots      ...    0.001 sec
Total time needed                          ...    0.003 sec

-------------------
DFT GRID GENERATION
-------------------

General Integration Accuracy     IntAcc      ...  4.670
Radial Grid Type                 RadialGrid  ... Gauss-Chebyshev
Angular Grid (max. acc.)         AngularGrid ... Lebedev-302
Angular grid pruning method      GridPruning ... 3 (G Style)
Weight generation scheme         WeightScheme... Becke
Basis function cutoff            BFCut       ...    1.0000e-10
Integration weight cutoff        WCut        ...    1.0000e-14
Grids for H and He will be reduced by one unit

# of grid points (after initial pruning)     ...   6272 (   0.0 sec)
# of grid points (after weights+screening)   ...   6272 (   0.0 sec)
Grid point division into batches done        ...    0.0 sec
Reduced shell lists constructed in    0.0 sec

Total number of grid points                  ...     6272
Total number of batches                      ...       99
Average number of points per batch           ...       63
Average number of grid points per atom       ...     6272
Average number of shells per batch           ...     3.33 (23.81%)
Average number of basis functions per batch  ...    10.00 (25.00%)
Average number of large shells per batch     ...     2.50 (75.00%)
Average number of large basis fcns per batch ...     7.50 (75.00%)
Maximum spatial batch extension              ...  15.22, 15.22, 15.22 au
Average spatial batch extension              ...   0.67,  0.67,  0.72 au

Time for grid setup =    0.055 sec

------------------------------
INITIAL GUESS: MODEL POTENTIAL
------------------------------
Loading Hartree-Fock densities                     ... done
Calculating cut-offs                               ... done
Setting up the integral package                    ... done
Initializing the effective Hamiltonian             ... done
Starting the Coulomb interaction                   ... done (   0.0 sec)
Reading the grid                                   ... done
Mapping shells                                     ... done
Starting the XC term evaluation                    ... done (   0.0 sec)
  promolecular density results
     # of electrons  =      9.000001927
     EX              =     -9.914469873
     EC              =     -0.296868576
     EX+EC           =    -10.211338449
Transforming the Hamiltonian                       ... done (   0.0 sec)
Diagonalizing the Hamiltonian                      ... done (   0.0 sec)
Back transforming the eigenvectors                 ... done (   0.0 sec)
Now organizing SCF variables                       ... done
                      ------------------
                      INITIAL GUESS DONE (   0.2 sec)
                      ------------------
--------------
SCF ITERATIONS
--------------
ITER       Energy         Delta-E        Max-DP      RMS-DP      [F,P]     Damp
               ***  Starting incremental Fock matrix formation  ***
  0    -99.7814202432   0.000000000000 0.00291159  0.00020773  0.0777606 0.7000
  1    -99.7826288261  -0.001208582891 0.00241560  0.00017174  0.0545956 0.7000
                               ***Turning on DIIS***
  2    -99.7835516434  -0.000922817307 0.00613928  0.00042993  0.0382882 0.0000
  3    -99.7859848315  -0.002433188083 0.00217291  0.00010905  0.0054983 0.0000
  4    -99.7860978454  -0.000113013972 0.00090117  0.00004277  0.0025589 0.0000
  5    -99.7861314701  -0.000033624640 0.00048374  0.00003183  0.0007666 0.0000
  6    -99.7861526366  -0.000021166576 0.00004815  0.00000310  0.0000427 0.0000
  7    -99.7861546112  -0.000001974601 0.00000969  0.00000055  0.0000042 0.0000
                 **** Energy Check signals convergence ****

               *****************************************************
               *                     SUCCESS                       *
               *           SCF CONVERGED AFTER   8 CYCLES          *
               *****************************************************


Setting up the DFT-NL grid :

General Integration Accuracy     IntAcc      ...  4.340
Radial Grid Type                 RadialGrid  ... Gauss-Chebyshev
Angular Grid (max. acc.)         AngularGrid ... Lebedev-110
Angular grid pruning method      GridPruning ... 3 (G Style)
Weight generation scheme         WeightScheme... Becke
Basis function cutoff            BFCut       ...    1.0000e-10
Integration weight cutoff        WCut        ...    1.0000e-14
Grids for H and He will be reduced by one unit

# of grid points (after initial pruning)     ...   1740 (   0.0 sec)
# of grid points (after weights+screening)   ...   1740 (   0.0 sec)
Grid point division into batches done        ...    0.0 sec
Reduced shell lists constructed in    0.0 sec

Total number of grid points                  ...     1740
Total number of batches                      ...       28
Average number of points per batch           ...       62
Average number of grid points per atom       ...     1740
Average number of shells per batch           ...     5.33 (38.10%)
Average number of basis functions per batch  ...    14.67 (36.67%)
Average number of large shells per batch     ...     5.33 (100.00%)
Average number of large basis fcns per batch ...    14.67 (100.00%)
Maximum spatial batch extension              ...  13.89, 25.65, 25.65 au
Average spatial batch extension              ...   0.99,  1.83,  1.83 au

Final grid set up in    0.0 sec

-------------------------------------------------------------------------------
                         DFT-NL dispersion correction                          
-------------------------------------------------------------------------------

SC Energy -99.786154849 
NL    Energy 0.039632626 
SC+NL Energy -99.746522223 
NL done in    0.0 sec
-------------------------------------------------------------------------------

----------------
TOTAL SCF ENERGY
----------------

Total Energy       :          -99.74652222 Eh           -2714.24086 eV

Components:
Nuclear Repulsion  :            0.00000000 Eh               0.00000 eV
Electronic Energy  :          -99.74652222 Eh           -2714.24086 eV
One Electron Energy:         -139.10696717 Eh           -3785.29302 eV
Two Electron Energy:           39.36044494 Eh            1071.05216 eV

Virial components:
Potential Energy   :         -199.28671227 Eh           -5422.86713 eV
Kinetic Energy     :           99.54019004 Eh            2708.62628 eV
Virial Ratio       :            2.00207285


DFT components:
N(Alpha)           :        4.999999970499 electrons
N(Beta)            :        3.999999972133 electrons
N(Total)           :        8.999999942632 electrons
E(X)               :       -7.328885999405 Eh       
E(C)               :       -0.315081364222 Eh       
NL Energy, E(C,NL) :        0.039632625768 Eh       
E(XC)              :       -7.604334737859 Eh       
DFET-embed. en.    :        0.000000000000 Eh       

---------------
SCF CONVERGENCE
---------------

  Last Energy change         ...   -2.3742e-07  Tolerance :   1.0000e-06
  Last MAX-Density change    ...    3.6081e-06  Tolerance :   1.0000e-05
  Last RMS-Density change    ...    1.7729e-07  Tolerance :   1.0000e-06
  Last DIIS Error            ...    2.9935e-06  Tolerance :   1.0000e-06

             **** THE GBW FILE WAS UPDATED (TMD03_F.gbw) ****
             **** DENSITY FILE WAS UPDATED (TMD03_F.scfp) ****
             **** ENERGY FILE WAS UPDATED (TMD03_F.en.tmp) ****
----------------------
UHF SPIN CONTAMINATION
----------------------

Warning: in a DFT calculation there is little theoretical justification to 
         calculate <S**2> as in Hartree-Fock theory. We will do it anyways
         but you should keep in mind that the values have only limited relevance

Expectation value of <S**2>     :     0.751865
Ideal value S*(S+1) for S=0.5   :     0.750000
Deviation                       :     0.001865

             **** THE GBW FILE WAS UPDATED (TMD03_F.gbw) ****
             **** DENSITY FILE WAS UPDATED (TMD03_F.scfp) ****
----------------
ORBITAL ENERGIES
----------------
                 SPIN UP ORBITALS
  NO   OCC          E(Eh)            E(eV) 
   0   1.0000     -25.011364      -680.5938 
   1   1.0000      -1.368270       -37.2325 
   2   1.0000      -0.672930       -18.3113 
   3   1.0000      -0.597096       -16.2478 
   4   1.0000      -0.597096       -16.2478 
   5   0.0000       0.116456         3.1689 
   6   0.0000       0.121525         3.3069 
   7   0.0000       0.121525         3.3069 
   8   0.0000       0.129259         3.5173 
   9   0.0000       0.528402        14.3786 
  10   0.0000       0.532334        14.4856 
  11   0.0000       0.532334        14.4856 
  12   0.0000       0.541311        14.7298 
  13   0.0000       0.541311        14.7298 
  14   0.0000       0.734429        19.9848 
  15   0.0000       0.758638        20.6436 
  16   0.0000       0.758638        20.6436 
  17   0.0000       0.904231        24.6054 
  18   0.0000       2.225525        60.5596 
  19   0.0000       2.241123        60.9841 
  20   0.0000       2.241123        60.9841 
  21   0.0000       2.288780        62.2809 
  22   0.0000       2.288780        62.2809 
  23   0.0000       3.253820        88.5409 
  24   0.0000       3.328971        90.5859 
  25   0.0000       3.328971        90.5859 
  26   0.0000       3.846466       104.6677 
  27   0.0000       6.854276       186.5143 
  28   0.0000       6.865253       186.8130 
  29   0.0000       6.865253       186.8130 
  30   0.0000       6.897113       187.6800 
  31   0.0000       6.897113       187.6800 
  32   0.0000       6.949257       189.0989 
  33   0.0000       6.949257       189.0989 
  34   0.0000       8.382618       228.1026 
  35   0.0000       8.406204       228.7444 
  36   0.0000       8.406205       228.7445 
  37   0.0000       8.480424       230.7641 
  38   0.0000       8.480424       230.7641 
  39   0.0000      57.028078      1551.8129 

                 SPIN DOWN ORBITALS
  NO   OCC          E(Eh)            E(eV) 
   0   1.0000     -24.980511      -679.7543 
   1   1.0000      -1.276623       -34.7387 
   2   1.0000      -0.560797       -15.2601 
   3   1.0000      -0.560795       -15.2600 
   4   0.0000      -0.163628        -4.4526 
   5   0.0000       0.106038         2.8854 
   6   0.0000       0.120049         3.2667 
   7   0.0000       0.124988         3.4011 
   8   0.0000       0.124992         3.4012 
   9   0.0000       0.500978        13.6323 
  10   0.0000       0.524953        14.2847 
  11   0.0000       0.524962        14.2849 
  12   0.0000       0.543677        14.7942 
  13   0.0000       0.543677        14.7942 
  14   0.0000       0.762370        20.7451 
  15   0.0000       0.767415        20.8824 
  16   0.0000       0.767417        20.8825 
  17   0.0000       0.912785        24.8381 
  18   0.0000       2.302146        62.6446 
  19   0.0000       2.302148        62.6446 
  20   0.0000       2.302239        62.6471 
  21   0.0000       2.302239        62.6471 
  22   0.0000       2.313528        62.9543 
  23   0.0000       3.361607        91.4740 
  24   0.0000       3.361609        91.4740 
  25   0.0000       3.394083        92.3577 
  26   0.0000       3.911704       106.4429 
  27   0.0000       6.961898       189.4429 
  28   0.0000       6.961899       189.4429 
  29   0.0000       6.967540       189.5964 
  30   0.0000       6.967545       189.5965 
  31   0.0000       6.968075       189.6109 
  32   0.0000       6.968075       189.6109 
  33   0.0000       6.982182       189.9948 
  34   0.0000       8.515591       231.7210 
  35   0.0000       8.515592       231.7210 
  36   0.0000       8.530825       232.1355 
  37   0.0000       8.530841       232.1360 
  38   0.0000       8.563802       233.0329 
  39   0.0000      57.055539      1552.5601 

                    ********************************
                    * MULLIKEN POPULATION ANALYSIS *
                    ********************************

--------------------------------------------
MULLIKEN ATOMIC CHARGES AND SPIN POPULATIONS
--------------------------------------------
   0 F :   -0.000000    1.000000
Sum of atomic charges         :   -0.0000000
Sum of atomic spin populations:    1.0000000

-----------------------------------------------------
MULLIKEN REDUCED ORBITAL CHARGES AND SPIN POPULATIONS
-----------------------------------------------------
CHARGE
  0 F s       :     3.999676  s :     3.999676
      pz      :     1.627259  p :     4.999893
      px      :     1.507432
      py      :     1.865202
      dz2     :     0.000001  d :     0.000324
      dxz     :     0.000178
      dyz     :     0.000049
      dx2y2   :     0.000031
      dxy     :     0.000065
      f0      :     0.000011  f :     0.000107
      f+1     :     0.000023
      f-1     :     0.000007
      f+2     :     0.000020
      f-2     :     0.000023
      f+3     :     0.000011
      f-3     :     0.000011

SPIN
  0 F s       :    -0.000177  s :    -0.000177
      pz      :     0.372669  p :     0.999893
      px      :     0.492491
      py      :     0.134733
      dz2     :     0.000001  d :     0.000177
      dxz     :     0.000097
      dyz     :     0.000027
      dx2y2   :     0.000017
      dxy     :     0.000035
      f0      :     0.000011  f :     0.000107
      f+1     :     0.000023
      f-1     :     0.000007
      f+2     :     0.000020
      f-2     :     0.000023
      f+3     :     0.000011
      f-3     :     0.000011


                     *******************************
                     * LOEWDIN POPULATION ANALYSIS *
                     *******************************

-------------------------------------------
LOEWDIN ATOMIC CHARGES AND SPIN POPULATIONS
-------------------------------------------
   0 F :   -0.000000    1.000000

----------------------------------------------------
LOEWDIN REDUCED ORBITAL CHARGES AND SPIN POPULATIONS
----------------------------------------------------
CHARGE
  0 F s       :     3.999676  s :     3.999676
      pz      :     1.627259  p :     4.999893
      px      :     1.507432
      py      :     1.865202
      dz2     :     0.000001  d :     0.000324
      dxz     :     0.000178
      dyz     :     0.000049
      dx2y2   :     0.000031
      dxy     :     0.000065
      f0      :     0.000011  f :     0.000107
      f+1     :     0.000023
      f-1     :     0.000007
      f+2     :     0.000020
      f-2     :     0.000023
      f+3     :     0.000011
      f-3     :     0.000011

SPIN
  0 F s       :    -0.000177  s :    -0.000177
      pz      :     0.372669  p :     0.999893
      px      :     0.492491
      py      :     0.134733
      dz2     :     0.000001  d :     0.000177
      dxz     :     0.000097
      dyz     :     0.000027
      dx2y2   :     0.000017
      dxy     :     0.000035
      f0      :     0.000011  f :     0.000107
      f+1     :     0.000023
      f-1     :     0.000007
      f+2     :     0.000020
      f-2     :     0.000023
      f+3     :     0.000011
      f-3     :     0.000011


                      *****************************
                      * MAYER POPULATION ANALYSIS *
                      *****************************

  NA   - Mulliken gross atomic population
  ZA   - Total nuclear charge
  QA   - Mulliken gross atomic charge
  VA   - Mayer's total valence
  BVA  - Mayer's bonded valence
  FA   - Mayer's free valence

  ATOM       NA         ZA         QA         VA         BVA        FA
  0 F      9.0000     9.0000    -0.0000     1.0037     0.0000     1.0037

  Mayer bond orders larger than 0.100000


-------
TIMINGS
-------

Total SCF time: 0 days 0 hours 0 min 1 sec 

Total time                  ....       1.392 sec
Sum of individual times     ....       1.214 sec  ( 87.2%)

Fock matrix formation       ....       1.036 sec  ( 74.4%)
  XC integration            ....       0.060 sec  (  5.8% of F)
    Basis function eval.    ....       0.003 sec  (  4.9% of XC)
    Density eval.           ....       0.006 sec  (  9.8% of XC)
    XC-Functional eval.     ....       0.005 sec  (  7.9% of XC)
    XC-Potential eval.      ....       0.007 sec  ( 11.7% of XC)
Diagonalization             ....       0.005 sec  (  0.4%)
Density matrix formation    ....       0.001 sec  (  0.1%)
Population analysis         ....       0.003 sec  (  0.2%)
Initial guess               ....       0.105 sec  (  7.5%)
Orbital Transformation      ....       0.000 sec  (  0.0%)
Orbital Orthonormalization  ....       0.000 sec  (  0.0%)
DIIS solution               ....       0.004 sec  (  0.3%)
Grid generation             ....       0.060 sec  (  4.3%)

-------------------------   --------------------
FINAL SINGLE POINT ENERGY       -99.746522222901
-------------------------   --------------------


                            ***************************************
                            *     ORCA property calculations      *
                            ***************************************

                                    ---------------------
                                    Active property flags
                                    ---------------------
   (+) Dipole Moment


------------------------------------------------------------------------------
                       ORCA ELECTRIC PROPERTIES CALCULATION
------------------------------------------------------------------------------

Dipole Moment Calculation                       ... on
Quadrupole Moment Calculation                   ... off
Polarizability Calculation                      ... off
GBWName                                         ... TMD03_F.gbw
Electron density file                           ... TMD03_F.scfp
The origin for moment calculation is the CENTER OF MASS  = ( 0.000000,  0.000000  0.000000)

-------------
DIPOLE MOMENT
-------------
                                X             Y             Z
Electronic contribution:     -0.00000       0.00000      -0.00000
Nuclear contribution   :      0.00000       0.00000       0.00000
                        -----------------------------------------
Total Dipole Moment    :     -0.00000       0.00000      -0.00000
                        -----------------------------------------
Magnitude (a.u.)       :      0.00000
Magnitude (Debye)      :      0.00000



--------------------
Rotational spectrum 
--------------------
 
Rotational constants in cm-1:     0.000000     0.000000     0.000000 
Rotational constants in MHz :     0.000000     0.000000     0.000000 

 Dipole components along the rotational axes: 
x,y,z [a.u.] :    -0.000000     0.000000    -0.000000 
x,y,z [Debye]:    -0.000000     0.000000    -0.000000 

 

Timings for individual modules:

Sum of individual times         ...        2.443 sec (=   0.041 min)
GTO integral calculation        ...        0.671 sec (=   0.011 min)  27.5 %
SCF iterations                  ...        1.771 sec (=   0.030 min)  72.5 %
                             ****ORCA TERMINATED NORMALLY****
TOTAL RUN TIME: 0 days 0 hours 0 minutes 2 seconds 873 msec
