
                                 *****************
                                 * O   R   C   A *
                                 *****************

           --- An Ab Initio, DFT and Semiempirical electronic structure package ---

                  #######################################################
                  #                        -***-                        #
                  #          Department of theory and spectroscopy      #
                  #               Directorship: Frank Neese             #
                  #        Max Planck Institute fuer Kohlenforschung    #
                  #                Kaiser Wilhelm Platz 1               #
                  #                 D-45470 Muelheim/Ruhr               #
                  #                      Germany                        #
                  #                                                     #
                  #                  All rights reserved                #
                  #                        -***-                        #
                  #######################################################


                         Program Version 4.2.0 -  RELEASE  -


 With contributions from (in alphabetic order):
   Daniel Aravena         : Magnetic Suceptibility
   Michael Atanasov       : Ab Initio Ligand Field Theory (pilot matlab implementation)
   Alexander A. Auer      : GIAO ZORA, VPT2
   Ute Becker             : Parallelization
   Giovanni Bistoni       : ED, misc. LED, open-shell LED, HFLED
   Martin Brehm           : Molecular dynamics
   Dmytro Bykov           : SCF Hessian
   Vijay G. Chilkuri      : MRCI spin determinant printing, contributions to CSF-ICE
   Dipayan Datta          : RHF DLPNO-CCSD density
   Achintya Kumar Dutta   : EOM-CC, STEOM-CC
   Dmitry Ganyushin       : Spin-Orbit,Spin-Spin,Magnetic field MRCI
   Miquel Garcia          : C-PCM Hessian, Gaussian charge scheme
   Yang Guo               : DLPNO-NEVPT2, CIM, IAO-localization
   Andreas Hansen         : Spin unrestricted coupled pair/coupled cluster methods
   Benjamin Helmich-Paris : CASSCF linear response (MC-RPA)
   Lee Huntington         : MR-EOM, pCC
   Robert Izsak           : Overlap fitted RIJCOSX, COSX-SCS-MP3, EOM
   Christian Kollmar      : KDIIS, OOCD, Brueckner-CCSD(T), CCSD density
   Simone Kossmann        : Meta GGA functionals, TD-DFT gradient, OOMP2, MP2 Hessian
   Martin Krupicka        : AUTO-CI
   Lucas Lang             : DCDCAS
   Dagmar Lenk            : GEPOL surface, SMD
   Dimitrios Liakos       : Extrapolation schemes; Compound Job, initial MDCI parallelization
   Dimitrios Manganas     : Further ROCIS development; embedding schemes
   Dimitrios Pantazis     : SARC Basis sets
   Taras Petrenko         : DFT Hessian,TD-DFT gradient, ASA, ECA, R-Raman, ABS, FL, XAS/XES, NRVS
   Peter Pinski           : DLPNO-MP2, DLPNO-MP2 Gradient
   Christoph Reimann      : Effective Core Potentials
   Marius Retegan         : Local ZFS, SOC
   Christoph Riplinger    : Optimizer, TS searches, QM/MM, DLPNO-CCSD(T), (RO)-DLPNO pert. Triples
   Tobias Risthaus        : Range-separated hybrids, TD-DFT gradient, RPA, STAB
   Michael Roemelt        : Original ROCIS implementation
   Masaaki Saitow         : Open-shell DLPNO-CCSD energy and density
   Barbara Sandhoefer     : DKH picture change effects
   Avijit Sen             : IP-ROCIS
   Kantharuban Sivalingam : CASSCF convergence, NEVPT2, FIC-MRCI
   Bernardo de Souza      : ESD, SOC TD-DFT
   Georgi Stoychev        : AutoAux, RI-MP2 NMR
   Willem Van den Heuvel  : Paramagnetic NMR
   Boris Wezisla          : Elementary symmetry handling
   Frank Wennmohs         : Technical directorship


 We gratefully acknowledge several colleagues who have allowed us to
 interface, adapt or use parts of their codes:
   Stefan Grimme, W. Hujo, H. Kruse,             : VdW corrections, initial TS optimization,
                  C. Bannwarth                     DFT functionals, gCP, sTDA/sTD-DF
   Ed Valeev, F. Pavosevic, A. Kumar             : LibInt (2-el integral package), F12 methods
   Garnet Chan, S. Sharma, J. Yang, R. Olivares  : DMRG
   Ulf Ekstrom                                   : XCFun DFT Library
   Mihaly Kallay                                 : mrcc  (arbitrary order and MRCC methods)
   Andreas Klamt, Michael Diedenhofen            : otool_cosmo (COSMO solvation model)
   Jiri Pittner, Ondrej Demel                    : Mk-CCSD
   Frank Weinhold                                : gennbo (NPA and NBO analysis)
   Christopher J. Cramer and Donald G. Truhlar   : smd solvation model
   Lars Goerigk                                  : TD-DFT with DH, B97 family of functionals
   V. Asgeirsson, H. Jonsson                     : NEB implementation
   FAccTs GmbH                                   : IRC, NEB, NEB-TS, Multilevel, MM, QM/MM, CI optimization
   S Lehtola, MJT Oliveira, MAL Marques          : LibXC Library


 Your calculation uses the libint2 library for the computation of 2-el integrals
 For citations please refer to: http://libint.valeyev.net

 Your ORCA version has been built with support for libXC version: 4.2.3
 For citations please refer to: https://tddft.org/programs/libxc/

 This ORCA versions uses:
   CBLAS   interface :  Fast vector & matrix operations
   LAPACKE interface :  Fast linear algebra routines
   SCALAPACK package :  Parallel linear algebra routines


Your calculation utilizes the DFT-NL dispersion correction.
Cite in your paper:
Vydrov, O. A.; Van Voorhis, T. J. Chem. Phys. 2010, 133, 244103
Hujo, W.; Grimme, S. J. Chem. Theory Comput. 2011, 7, 3866 
   

----- Orbital basis set information -----
Your calculation utilizes the basis: def2-TZVPPD
   F. Weigend and R. Ahlrichs, Phys. Chem. Chem. Phys. 7, 3297 (2005).
   D. Rappoport and F. Furche, J. Chem. Phys. 133 134105 (2010).

----- AuxJK basis set information -----
Your calculation utilizes the auxiliary basis: def2/JK
   H-Ba, Hf-Rn: F. Weigend, J. Comput. Chem. 29, 167 (2008).

================================================================================
                                        WARNINGS
                       Please study these warnings very carefully!
================================================================================


WARNING: your system is open-shell and RHF/RKS was chosen
  ===> : WILL SWITCH to UHF/UKS


INFO   : the flag for use of LIBINT has been found!

================================================================================
                                       INPUT FILE
================================================================================
NAME = TMD04_S.in
|  1> #
|  2> # TMD04_S wB97M-V/Def2-TZVPPD
|  3> #
|  4> ! wb97m-v def2-tzvppd def2/jk grid4 nofinalgrid
|  5> 
|  6> *xyz 0 3
|  7> S        0.000000    0.000000    0.000000 
|  8> *
|  9> 
| 10> %maxcore 5000
| 11> 
| 12> %pal
| 13> nprocs = 24
| 14> end
| 15> 
| 16> 
| 17>                          ****END OF INPUT****
================================================================================

                       ****************************
                       * Single Point Calculation *
                       ****************************

---------------------------------
CARTESIAN COORDINATES (ANGSTROEM)
---------------------------------
  S      0.000000    0.000000    0.000000

----------------------------
CARTESIAN COORDINATES (A.U.)
----------------------------
  NO LB      ZA    FRAG     MASS         X           Y           Z
   0 S    16.0000    0    32.060    0.000000    0.000000    0.000000

--------------------------------
INTERNAL COORDINATES (ANGSTROEM)
--------------------------------
 S      0   0   0     0.000000000000     0.00000000     0.00000000

---------------------------
INTERNAL COORDINATES (A.U.)
---------------------------
 S      0   0   0     0.000000000000     0.00000000     0.00000000

---------------------
BASIS SET INFORMATION
---------------------
There are 1 groups of distinct atoms

 Group   1 Type S   : 15s10p4d1f contracted to 6s6p4d1f pattern {732111/511111/1111/1}

Atom   0S    basis set group =>   1
----------------------------------
AUXILIARY/JK BASIS SET INFORMATION
----------------------------------
There are 1 groups of distinct atoms

 Group   1 Type S   : 16s12p10d4f1g contracted to 13s11p9d4f1g pattern {4111111111111/21111111111/211111111/1111/1}

Atom   0S    basis set group =>   1


           ************************************************************
           *        Program running with 24 parallel MPI-processes    *
           *              working on a common directory               *
           ************************************************************
------------------------------------------------------------------------------
                           ORCA GTO INTEGRAL CALCULATION
------------------------------------------------------------------------------

                         BASIS SET STATISTICS AND STARTUP INFO

 # of primitive gaussian shells          ...   30
 # of primitive gaussian functions       ...   72
 # of contracted shells                  ...   17
 # of contracted basis functions         ...   51
 Highest angular momentum                ...    3
 Maximum contraction depth               ...    7
 Integral package used                   ... LIBINT
 Integral threshhold            Thresh   ...  1.000e-10
 Primitive cut-off              TCut     ...  1.000e-11


------------------------------ INTEGRAL EVALUATION ----------------------------


 * One electron integrals 
 Pre-screening matrix                    ... done
 Shell pair data                         ... done (   0.000 sec)



           ************************************************************
           *        Program running with 24 parallel MPI-processes    *
           *              working on a common directory               *
           ************************************************************
-------------------------------------------------------------------------------
                                 ORCA SCF
-------------------------------------------------------------------------------

------------
SCF SETTINGS
------------
Hamiltonian:
 Density Functional     Method          .... DFT(GTOs)
 Exchange Functional    Exchange        .... WB97M-V
 Correlation Functional Correlation     .... WB97M-V
 Gradients option       PostSCFGGA      .... off
 Hybrid DFT is turned on
   Fraction HF Exchange ScalHFX         ....  0.150000
   Scaling of DF-GGA-X  ScalDFX         ....  0.000000
   Scaling of DF-GGA-C  ScalDFC         ....  1.000000
   Scaling of DF-LDA-C  ScalLDAC        ....  1.000000
   Perturbative correction              ....  0.000000
   Density functional embedding theory  .... OFF
 Long-range corrected/Screened/Range-Separated Hybrid DFT is turned on
   Amount of maximum screened exact exchange              ....  0.850000
   Range separation parameter mu (erf(mu*r12)/r12)        ....  0.300000
   NL short-range parameter             ....  6.000000
   NL long-range parameter              ....  0.010000


General Settings:
 Integral files         IntName         .... TMD04_S
 Hartree-Fock type      HFTyp           .... UHF
 Total Charge           Charge          ....    0
 Multiplicity           Mult            ....    3
 Number of Electrons    NEL             ....   16
 Basis Dimension        Dim             ....   51
 Nuclear Repulsion      ENuc            ....      0.0000000000 Eh

Convergence Acceleration:
 DIIS                   CNVDIIS         .... on
   Start iteration      DIISMaxIt       ....    12
   Startup error        DIISStart       ....  0.200000
   # of expansion vecs  DIISMaxEq       ....     5
   Bias factor          DIISBfac        ....   1.050
   Max. coefficient     DIISMaxC        ....  10.000
 Newton-Raphson         CNVNR           .... off
 SOSCF                  CNVSOSCF        .... off
 Level Shifting         CNVShift        .... on
   Level shift para.    LevelShift      ....    0.2500
   Turn off err/grad.   ShiftErr        ....    0.0010
 Zerner damping         CNVZerner       .... off
 Static damping         CNVDamp         .... on
   Fraction old density DampFac         ....    0.7000
   Max. Damping (<1)    DampMax         ....    0.9800
   Min. Damping (>=0)   DampMin         ....    0.0000
   Turn off err/grad.   DampErr         ....    0.1000
 Fernandez-Rico         CNVRico         .... off

SCF Procedure:
 Maximum # iterations   MaxIter         ....   125
 SCF integral mode      SCFMode         .... Direct
   Integral package                     .... LIBINT
 Reset frequency        DirectResetFreq ....    20
 Integral Threshold     Thresh          ....  1.000e-10 Eh
 Primitive CutOff       TCut            ....  1.000e-11 Eh

Convergence Tolerance:
 Convergence Check Mode ConvCheckMode   .... Total+1el-Energy
 Convergence forced     ConvForced      .... 0
 Energy Change          TolE            ....  1.000e-06 Eh
 1-El. energy change                    ....  1.000e-03 Eh
 DIIS Error             TolErr          ....  1.000e-06


Diagonalization of the overlap matrix:
Smallest eigenvalue                        ... 3.254e-02
Time for diagonalization                   ...    0.002 sec
Threshold for overlap eigenvalues          ... 1.000e-08
Number of eigenvalues below threshold      ... 0
Time for construction of square roots      ...    0.001 sec
Total time needed                          ...    0.003 sec

-------------------
DFT GRID GENERATION
-------------------

General Integration Accuracy     IntAcc      ...  4.670
Radial Grid Type                 RadialGrid  ... Gauss-Chebyshev
Angular Grid (max. acc.)         AngularGrid ... Lebedev-302
Angular grid pruning method      GridPruning ... 3 (G Style)
Weight generation scheme         WeightScheme... Becke
Basis function cutoff            BFCut       ...    1.0000e-10
Integration weight cutoff        WCut        ...    1.0000e-14
Grids for H and He will be reduced by one unit

# of grid points (after initial pruning)     ...   6846 (   0.0 sec)
# of grid points (after weights+screening)   ...   6846 (   0.0 sec)
Grid point division into batches done        ...    0.0 sec
Reduced shell lists constructed in    0.0 sec

Total number of grid points                  ...     6846
Total number of batches                      ...      107
Average number of points per batch           ...       63
Average number of grid points per atom       ...     6846
Average number of shells per batch           ...     4.17 (24.51%)
Average number of basis functions per batch  ...    10.83 (21.24%)
Average number of large shells per batch     ...     3.33 (80.00%)
Average number of large basis fcns per batch ...    10.00 (92.31%)
Maximum spatial batch extension              ...  17.78, 17.78, 17.78 au
Average spatial batch extension              ...   0.72,  0.72,  0.74 au

Time for grid setup =    0.062 sec

------------------------------
INITIAL GUESS: MODEL POTENTIAL
------------------------------
Loading Hartree-Fock densities                     ... done
Calculating cut-offs                               ... done
Setting up the integral package                    ... done
Initializing the effective Hamiltonian             ... done
Starting the Coulomb interaction                   ... done (   0.0 sec)
Reading the grid                                   ... done
Mapping shells                                     ... done
Starting the XC term evaluation                    ... done (   0.0 sec)
  promolecular density results
     # of electrons  =     16.000000228
     EX              =    -24.807173065
     EC              =     -0.594926646
     EX+EC           =    -25.402099711
Transforming the Hamiltonian                       ... done (   0.0 sec)
Diagonalizing the Hamiltonian                      ... done (   0.0 sec)
Back transforming the eigenvectors                 ... done (   0.0 sec)
Now organizing SCF variables                       ... done
                      ------------------
                      INITIAL GUESS DONE (   0.2 sec)
                      ------------------
--------------
SCF ITERATIONS
--------------
ITER       Energy         Delta-E        Max-DP      RMS-DP      [F,P]     Damp
               ***  Starting incremental Fock matrix formation  ***
  0   -398.1531355219   0.000000000000 0.00972287  0.00028342  0.0512567 0.7000
  1   -398.1545582548  -0.001422732946 0.00890184  0.00025583  0.0359802 0.7000
                               ***Turning on DIIS***
  2   -398.1557157475  -0.001157492648 0.02315897  0.00066893  0.0252458 0.0000
  3   -398.1588111369  -0.003095389392 0.00309374  0.00012436  0.0026099 0.0000
  4   -398.1590126856  -0.000201548790 0.00251809  0.00007243  0.0011468 0.0000
  5   -398.1591050770  -0.000092391394 0.00128029  0.00004129  0.0005384 0.0000
  6   -398.1591766179  -0.000071540873 0.00009956  0.00000375  0.0000604 0.0000
  7   -398.1591846461  -0.000008028228 0.00001519  0.00000087  0.0000115 0.0000
                 **** Energy Check signals convergence ****

               *****************************************************
               *                     SUCCESS                       *
               *           SCF CONVERGED AFTER   8 CYCLES          *
               *****************************************************


Setting up the DFT-NL grid :

General Integration Accuracy     IntAcc      ...  4.340
Radial Grid Type                 RadialGrid  ... Gauss-Chebyshev
Angular Grid (max. acc.)         AngularGrid ... Lebedev-110
Angular grid pruning method      GridPruning ... 3 (G Style)
Weight generation scheme         WeightScheme... Becke
Basis function cutoff            BFCut       ...    1.0000e-10
Integration weight cutoff        WCut        ...    1.0000e-14
Grids for H and He will be reduced by one unit

# of grid points (after initial pruning)     ...   1806 (   0.0 sec)
# of grid points (after weights+screening)   ...   1806 (   0.0 sec)
Grid point division into batches done        ...    0.0 sec
Reduced shell lists constructed in    0.0 sec

Total number of grid points                  ...     1806
Total number of batches                      ...       29
Average number of points per batch           ...       62
Average number of grid points per atom       ...     1806
Average number of shells per batch           ...     7.33 (43.14%)
Average number of basis functions per batch  ...    24.67 (48.37%)
Average number of large shells per batch     ...     6.00 (81.82%)
Average number of large basis fcns per batch ...    19.33 (78.38%)
Maximum spatial batch extension              ...  16.21, 29.83, 29.83 au
Average spatial batch extension              ...   1.12,  2.06,  2.06 au

Final grid set up in    0.0 sec

-------------------------------------------------------------------------------
                         DFT-NL dispersion correction                          
-------------------------------------------------------------------------------

SC Energy -398.159185466 
NL    Energy 0.068673302 
SC+NL Energy -398.090512164 
NL done in    0.0 sec
-------------------------------------------------------------------------------

----------------
TOTAL SCF ENERGY
----------------

Total Energy       :         -398.09051216 Eh          -10832.59355 eV

Components:
Nuclear Repulsion  :            0.00000000 Eh               0.00000 eV
Electronic Energy  :         -398.09051216 Eh          -10832.59355 eV
One Electron Energy:         -549.39799466 Eh          -14949.87947 eV
Two Electron Energy:          151.30748250 Eh            4117.28592 eV

Virial components:
Potential Energy   :         -795.46671087 Eh          -21645.74965 eV
Kinetic Energy     :          397.37619871 Eh           10813.15610 eV
Virial Ratio       :            2.00179757


DFT components:
N(Alpha)           :        9.000000054598 electrons
N(Beta)            :        7.000000106312 electrons
N(Total)           :       16.000000160910 electrons
E(X)               :      -19.080410272156 Eh       
E(C)               :       -0.658340694277 Eh       
NL Energy, E(C,NL) :        0.068673301909 Eh       
E(XC)              :      -19.670077664524 Eh       
DFET-embed. en.    :        0.000000000000 Eh       

---------------
SCF CONVERGENCE
---------------

  Last Energy change         ...   -8.1982e-07  Tolerance :   1.0000e-06
  Last MAX-Density change    ...    8.6651e-06  Tolerance :   1.0000e-05
  Last RMS-Density change    ...    2.0823e-07  Tolerance :   1.0000e-06
  Last DIIS Error            ...    4.0617e-06  Tolerance :   1.0000e-06

             **** THE GBW FILE WAS UPDATED (TMD04_S.gbw) ****
             **** DENSITY FILE WAS UPDATED (TMD04_S.scfp) ****
             **** ENERGY FILE WAS UPDATED (TMD04_S.en.tmp) ****
----------------------
UHF SPIN CONTAMINATION
----------------------

Warning: in a DFT calculation there is little theoretical justification to 
         calculate <S**2> as in Hartree-Fock theory. We will do it anyways
         but you should keep in mind that the values have only limited relevance

Expectation value of <S**2>     :     2.003633
Ideal value S*(S+1) for S=1.0   :     2.000000
Deviation                       :     0.003633

             **** THE GBW FILE WAS UPDATED (TMD04_S.gbw) ****
             **** DENSITY FILE WAS UPDATED (TMD04_S.scfp) ****
----------------
ORBITAL ENERGIES
----------------
                 SPIN UP ORBITALS
  NO   OCC          E(Eh)            E(eV) 
   0   1.0000     -89.253092     -2428.7001 
   1   1.0000      -8.176278      -222.4878 
   2   1.0000      -6.093125      -165.8024 
   3   1.0000      -6.093125      -165.8024 
   4   1.0000      -6.074279      -165.2895 
   5   1.0000      -0.841053       -22.8862 
   6   1.0000      -0.428091       -11.6490 
   7   1.0000      -0.428091       -11.6490 
   8   1.0000      -0.391153       -10.6438 
   9   0.0000       0.056393         1.5345 
  10   0.0000       0.056393         1.5345 
  11   0.0000       0.060264         1.6399 
  12   0.0000       0.078299         2.1306 
  13   0.0000       0.179140         4.8747 
  14   0.0000       0.179140         4.8747 
  15   0.0000       0.189493         5.1564 
  16   0.0000       0.189493         5.1564 
  17   0.0000       0.191951         5.2232 
  18   0.0000       0.428033        11.6474 
  19   0.0000       0.428033        11.6474 
  20   0.0000       0.443049        12.0560 
  21   0.0000       0.503457        13.6998 
  22   0.0000       0.503457        13.6998 
  23   0.0000       0.528590        14.3837 
  24   0.0000       0.528590        14.3837 
  25   0.0000       0.537012        14.6128 
  26   0.0000       0.671131        18.2624 
  27   0.0000       1.566249        42.6198 
  28   0.0000       1.566249        42.6198 
  29   0.0000       1.598591        43.4999 
  30   0.0000       1.598591        43.4999 
  31   0.0000       1.609854        43.8063 
  32   0.0000       1.646284        44.7977 
  33   0.0000       1.646284        44.7977 
  34   0.0000       1.675291        45.5870 
  35   0.0000       1.675291        45.5870 
  36   0.0000       1.691061        46.0161 
  37   0.0000       1.691061        46.0161 
  38   0.0000       1.696868        46.1741 
  39   0.0000       1.853424        50.4342 
  40   0.0000       1.853424        50.4342 
  41   0.0000       1.906892        51.8892 
  42   0.0000       6.787104       184.6865 
  43   0.0000       6.787104       184.6865 
  44   0.0000       6.807055       185.2294 
  45   0.0000       6.807055       185.2294 
  46   0.0000       6.814911       185.4432 
  47   0.0000       8.946243       243.4397 
  48   0.0000       8.946243       243.4397 
  49   0.0000       8.978389       244.3144 
  50   0.0000      18.075388       491.8563 

                 SPIN DOWN ORBITALS
  NO   OCC          E(Eh)            E(eV) 
   0   1.0000     -89.240396     -2428.3546 
   1   1.0000      -8.165695      -222.1999 
   2   1.0000      -6.069157      -165.1502 
   3   1.0000      -6.069157      -165.1502 
   4   1.0000      -6.066033      -165.0651 
   5   1.0000      -0.749336       -20.3905 
   6   1.0000      -0.359089        -9.7713 
   7   0.0000      -0.106149        -2.8885 
   8   0.0000      -0.106147        -2.8884 
   9   0.0000       0.020997         0.5713 
  10   0.0000       0.028204         0.7675 
  11   0.0000       0.028234         0.7683 
  12   0.0000       0.060265         1.6399 
  13   0.0000       0.122918         3.3448 
  14   0.0000       0.122924         3.3449 
  15   0.0000       0.178950         4.8695 
  16   0.0000       0.179551         4.8858 
  17   0.0000       0.179552         4.8858 
  18   0.0000       0.414900        11.2900 
  19   0.0000       0.414909        11.2902 
  20   0.0000       0.446094        12.1388 
  21   0.0000       0.564421        15.3587 
  22   0.0000       0.564424        15.3587 
  23   0.0000       0.569199        15.4887 
  24   0.0000       0.569199        15.4887 
  25   0.0000       0.570526        15.5248 
  26   0.0000       0.701544        19.0900 
  27   0.0000       1.637582        44.5609 
  28   0.0000       1.637583        44.5609 
  29   0.0000       1.644123        44.7389 
  30   0.0000       1.646563        44.8052 
  31   0.0000       1.646563        44.8052 
  32   0.0000       1.753039        47.7026 
  33   0.0000       1.753233        47.7079 
  34   0.0000       1.753233        47.7079 
  35   0.0000       1.758635        47.8549 
  36   0.0000       1.758635        47.8549 
  37   0.0000       1.762053        47.9479 
  38   0.0000       1.762053        47.9479 
  39   0.0000       1.952113        53.1197 
  40   0.0000       1.952114        53.1197 
  41   0.0000       1.954717        53.1905 
  42   0.0000       6.810837       185.3323 
  43   0.0000       6.810837       185.3323 
  44   0.0000       6.820758       185.6023 
  45   0.0000       6.820758       185.6023 
  46   0.0000       6.824333       185.6995 
  47   0.0000       8.988837       244.5987 
  48   0.0000       8.988837       244.5987 
  49   0.0000       8.990629       244.6474 
  50   0.0000      18.089020       492.2272 

                    ********************************
                    * MULLIKEN POPULATION ANALYSIS *
                    ********************************

--------------------------------------------
MULLIKEN ATOMIC CHARGES AND SPIN POPULATIONS
--------------------------------------------
   0 S :    0.000000    2.000000
Sum of atomic charges         :    0.0000000
Sum of atomic spin populations:    2.0000000

-----------------------------------------------------
MULLIKEN REDUCED ORBITAL CHARGES AND SPIN POPULATIONS
-----------------------------------------------------
CHARGE
  0 S s       :     5.999086  s :     5.999086
      pz      :     3.000180  p :     9.999496
      px      :     3.997916
      py      :     3.001400
      dz2     :     0.000228  d :     0.000914
      dxz     :     0.000001
      dyz     :     0.000000
      dx2y2   :     0.000680
      dxy     :     0.000004
      f0      :     0.000054  f :     0.000504
      f+1     :     0.000082
      f-1     :     0.000009
      f+2     :     0.000089
      f-2     :     0.000001
      f+3     :     0.000136
      f-3     :     0.000134

SPIN
  0 S s       :    -0.000640  s :    -0.000640
      pz      :     0.999534  p :     1.999505
      px      :     0.001657
      py      :     0.998314
      dz2     :     0.000160  d :     0.000640
      dxz     :     0.000001
      dyz     :     0.000000
      dx2y2   :     0.000477
      dxy     :     0.000003
      f0      :     0.000054  f :     0.000495
      f+1     :     0.000078
      f-1     :     0.000009
      f+2     :     0.000089
      f-2     :     0.000001
      f+3     :     0.000130
      f-3     :     0.000134


                     *******************************
                     * LOEWDIN POPULATION ANALYSIS *
                     *******************************

-------------------------------------------
LOEWDIN ATOMIC CHARGES AND SPIN POPULATIONS
-------------------------------------------
   0 S :    0.000000    2.000000

----------------------------------------------------
LOEWDIN REDUCED ORBITAL CHARGES AND SPIN POPULATIONS
----------------------------------------------------
CHARGE
  0 S s       :     5.999086  s :     5.999086
      pz      :     3.000180  p :     9.999496
      px      :     3.997916
      py      :     3.001400
      dz2     :     0.000228  d :     0.000914
      dxz     :     0.000001
      dyz     :     0.000000
      dx2y2   :     0.000680
      dxy     :     0.000004
      f0      :     0.000054  f :     0.000504
      f+1     :     0.000082
      f-1     :     0.000009
      f+2     :     0.000089
      f-2     :     0.000001
      f+3     :     0.000136
      f-3     :     0.000134

SPIN
  0 S s       :    -0.000640  s :    -0.000640
      pz      :     0.999534  p :     1.999505
      px      :     0.001657
      py      :     0.998314
      dz2     :     0.000160  d :     0.000640
      dxz     :     0.000001
      dyz     :     0.000000
      dx2y2   :     0.000477
      dxy     :     0.000003
      f0      :     0.000054  f :     0.000495
      f+1     :     0.000078
      f-1     :     0.000009
      f+2     :     0.000089
      f-2     :     0.000001
      f+3     :     0.000130
      f-3     :     0.000134


                      *****************************
                      * MAYER POPULATION ANALYSIS *
                      *****************************

  NA   - Mulliken gross atomic population
  ZA   - Total nuclear charge
  QA   - Mulliken gross atomic charge
  VA   - Mayer's total valence
  BVA  - Mayer's bonded valence
  FA   - Mayer's free valence

  ATOM       NA         ZA         QA         VA         BVA        FA
  0 S     16.0000    16.0000     0.0000     2.0073     0.0000     2.0073

  Mayer bond orders larger than 0.100000


-------
TIMINGS
-------

Total SCF time: 0 days 0 hours 0 min 1 sec 

Total time                  ....       1.401 sec
Sum of individual times     ....       1.195 sec  ( 85.3%)

Fock matrix formation       ....       1.002 sec  ( 71.5%)
  XC integration            ....       0.068 sec  (  6.8% of F)
    Basis function eval.    ....       0.003 sec  (  4.8% of XC)
    Density eval.           ....       0.007 sec  (  9.9% of XC)
    XC-Functional eval.     ....       0.005 sec  (  7.0% of XC)
    XC-Potential eval.      ....       0.011 sec  ( 15.4% of XC)
Diagonalization             ....       0.008 sec  (  0.6%)
Density matrix formation    ....       0.003 sec  (  0.2%)
Population analysis         ....       0.003 sec  (  0.2%)
Initial guess               ....       0.108 sec  (  7.7%)
Orbital Transformation      ....       0.000 sec  (  0.0%)
Orbital Orthonormalization  ....       0.000 sec  (  0.0%)
DIIS solution               ....       0.004 sec  (  0.3%)
Grid generation             ....       0.068 sec  (  4.9%)

-------------------------   --------------------
FINAL SINGLE POINT ENERGY      -398.090512164046
-------------------------   --------------------


                            ***************************************
                            *     ORCA property calculations      *
                            ***************************************

                                    ---------------------
                                    Active property flags
                                    ---------------------
   (+) Dipole Moment


------------------------------------------------------------------------------
                       ORCA ELECTRIC PROPERTIES CALCULATION
------------------------------------------------------------------------------

Dipole Moment Calculation                       ... on
Quadrupole Moment Calculation                   ... off
Polarizability Calculation                      ... off
GBWName                                         ... TMD04_S.gbw
Electron density file                           ... TMD04_S.scfp
The origin for moment calculation is the CENTER OF MASS  = ( 0.000000,  0.000000  0.000000)

-------------
DIPOLE MOMENT
-------------
                                X             Y             Z
Electronic contribution:     -0.00000       0.00000      -0.00000
Nuclear contribution   :      0.00000       0.00000       0.00000
                        -----------------------------------------
Total Dipole Moment    :     -0.00000       0.00000      -0.00000
                        -----------------------------------------
Magnitude (a.u.)       :      0.00000
Magnitude (Debye)      :      0.00000



--------------------
Rotational spectrum 
--------------------
 
Rotational constants in cm-1:     0.000000     0.000000     0.000000 
Rotational constants in MHz :     0.000000     0.000000     0.000000 

 Dipole components along the rotational axes: 
x,y,z [a.u.] :    -0.000000     0.000000    -0.000000 
x,y,z [Debye]:    -0.000000     0.000000    -0.000000 

 

Timings for individual modules:

Sum of individual times         ...        2.403 sec (=   0.040 min)
GTO integral calculation        ...        0.628 sec (=   0.010 min)  26.1 %
SCF iterations                  ...        1.775 sec (=   0.030 min)  73.9 %
                             ****ORCA TERMINATED NORMALLY****
TOTAL RUN TIME: 0 days 0 hours 0 minutes 2 seconds 840 msec
