
                                 *****************
                                 * O   R   C   A *
                                 *****************

           --- An Ab Initio, DFT and Semiempirical electronic structure package ---

                  #######################################################
                  #                        -***-                        #
                  #          Department of theory and spectroscopy      #
                  #               Directorship: Frank Neese             #
                  #        Max Planck Institute fuer Kohlenforschung    #
                  #                Kaiser Wilhelm Platz 1               #
                  #                 D-45470 Muelheim/Ruhr               #
                  #                      Germany                        #
                  #                                                     #
                  #                  All rights reserved                #
                  #                        -***-                        #
                  #######################################################


                         Program Version 4.2.0 -  RELEASE  -


 With contributions from (in alphabetic order):
   Daniel Aravena         : Magnetic Suceptibility
   Michael Atanasov       : Ab Initio Ligand Field Theory (pilot matlab implementation)
   Alexander A. Auer      : GIAO ZORA, VPT2
   Ute Becker             : Parallelization
   Giovanni Bistoni       : ED, misc. LED, open-shell LED, HFLED
   Martin Brehm           : Molecular dynamics
   Dmytro Bykov           : SCF Hessian
   Vijay G. Chilkuri      : MRCI spin determinant printing, contributions to CSF-ICE
   Dipayan Datta          : RHF DLPNO-CCSD density
   Achintya Kumar Dutta   : EOM-CC, STEOM-CC
   Dmitry Ganyushin       : Spin-Orbit,Spin-Spin,Magnetic field MRCI
   Miquel Garcia          : C-PCM Hessian, Gaussian charge scheme
   Yang Guo               : DLPNO-NEVPT2, CIM, IAO-localization
   Andreas Hansen         : Spin unrestricted coupled pair/coupled cluster methods
   Benjamin Helmich-Paris : CASSCF linear response (MC-RPA)
   Lee Huntington         : MR-EOM, pCC
   Robert Izsak           : Overlap fitted RIJCOSX, COSX-SCS-MP3, EOM
   Christian Kollmar      : KDIIS, OOCD, Brueckner-CCSD(T), CCSD density
   Simone Kossmann        : Meta GGA functionals, TD-DFT gradient, OOMP2, MP2 Hessian
   Martin Krupicka        : AUTO-CI
   Lucas Lang             : DCDCAS
   Dagmar Lenk            : GEPOL surface, SMD
   Dimitrios Liakos       : Extrapolation schemes; Compound Job, initial MDCI parallelization
   Dimitrios Manganas     : Further ROCIS development; embedding schemes
   Dimitrios Pantazis     : SARC Basis sets
   Taras Petrenko         : DFT Hessian,TD-DFT gradient, ASA, ECA, R-Raman, ABS, FL, XAS/XES, NRVS
   Peter Pinski           : DLPNO-MP2, DLPNO-MP2 Gradient
   Christoph Reimann      : Effective Core Potentials
   Marius Retegan         : Local ZFS, SOC
   Christoph Riplinger    : Optimizer, TS searches, QM/MM, DLPNO-CCSD(T), (RO)-DLPNO pert. Triples
   Tobias Risthaus        : Range-separated hybrids, TD-DFT gradient, RPA, STAB
   Michael Roemelt        : Original ROCIS implementation
   Masaaki Saitow         : Open-shell DLPNO-CCSD energy and density
   Barbara Sandhoefer     : DKH picture change effects
   Avijit Sen             : IP-ROCIS
   Kantharuban Sivalingam : CASSCF convergence, NEVPT2, FIC-MRCI
   Bernardo de Souza      : ESD, SOC TD-DFT
   Georgi Stoychev        : AutoAux, RI-MP2 NMR
   Willem Van den Heuvel  : Paramagnetic NMR
   Boris Wezisla          : Elementary symmetry handling
   Frank Wennmohs         : Technical directorship


 We gratefully acknowledge several colleagues who have allowed us to
 interface, adapt or use parts of their codes:
   Stefan Grimme, W. Hujo, H. Kruse,             : VdW corrections, initial TS optimization,
                  C. Bannwarth                     DFT functionals, gCP, sTDA/sTD-DF
   Ed Valeev, F. Pavosevic, A. Kumar             : LibInt (2-el integral package), F12 methods
   Garnet Chan, S. Sharma, J. Yang, R. Olivares  : DMRG
   Ulf Ekstrom                                   : XCFun DFT Library
   Mihaly Kallay                                 : mrcc  (arbitrary order and MRCC methods)
   Andreas Klamt, Michael Diedenhofen            : otool_cosmo (COSMO solvation model)
   Jiri Pittner, Ondrej Demel                    : Mk-CCSD
   Frank Weinhold                                : gennbo (NPA and NBO analysis)
   Christopher J. Cramer and Donald G. Truhlar   : smd solvation model
   Lars Goerigk                                  : TD-DFT with DH, B97 family of functionals
   V. Asgeirsson, H. Jonsson                     : NEB implementation
   FAccTs GmbH                                   : IRC, NEB, NEB-TS, Multilevel, MM, QM/MM, CI optimization
   S Lehtola, MJT Oliveira, MAL Marques          : LibXC Library


 Your calculation uses the libint2 library for the computation of 2-el integrals
 For citations please refer to: http://libint.valeyev.net

 Your ORCA version has been built with support for libXC version: 4.2.3
 For citations please refer to: https://tddft.org/programs/libxc/

 This ORCA versions uses:
   CBLAS   interface :  Fast vector & matrix operations
   LAPACKE interface :  Fast linear algebra routines
   SCALAPACK package :  Parallel linear algebra routines


Your calculation utilizes the DFT-NL dispersion correction.
Cite in your paper:
Vydrov, O. A.; Van Voorhis, T. J. Chem. Phys. 2010, 133, 244103
Hujo, W.; Grimme, S. J. Chem. Theory Comput. 2011, 7, 3866 
   

----- Orbital basis set information -----
Your calculation utilizes the basis: def2-TZVPPD
   F. Weigend and R. Ahlrichs, Phys. Chem. Chem. Phys. 7, 3297 (2005).
   D. Rappoport and F. Furche, J. Chem. Phys. 133 134105 (2010).

----- AuxJK basis set information -----
Your calculation utilizes the auxiliary basis: def2/JK
   H-Ba, Hf-Rn: F. Weigend, J. Comput. Chem. 29, 167 (2008).

================================================================================
                                        WARNINGS
                       Please study these warnings very carefully!
================================================================================


WARNING: your system is open-shell and RHF/RKS was chosen
  ===> : WILL SWITCH to UHF/UKS


INFO   : the flag for use of LIBINT has been found!

================================================================================
                                       INPUT FILE
================================================================================
NAME = TMD15_TiBr.in
|  1> #
|  2> # TMD15_TiBr wB97M-V/Def2-TZVPPD
|  3> #
|  4> ! wb97m-v def2-tzvppd def2/jk grid4 nofinalgrid
|  5> 
|  6> *xyz 0 4
|  7> Ti       0.000000    0.000000   -1.485965 
|  8> Br       0.000000    0.000000    0.934035 
|  9> *
| 10> 
| 11> %maxcore 5000
| 12> 
| 13> %pal
| 14> nprocs = 24
| 15> end
| 16> 
| 17> 
| 18>                          ****END OF INPUT****
================================================================================

                       ****************************
                       * Single Point Calculation *
                       ****************************

---------------------------------
CARTESIAN COORDINATES (ANGSTROEM)
---------------------------------
  Ti     0.000000    0.000000   -1.485965
  Br     0.000000    0.000000    0.934035

----------------------------
CARTESIAN COORDINATES (A.U.)
----------------------------
  NO LB      ZA    FRAG     MASS         X           Y           Z
   0 Ti   22.0000    0    47.900    0.000000    0.000000   -2.808067
   1 Br   35.0000    0    79.900    0.000000    0.000000    1.765070

--------------------------------
INTERNAL COORDINATES (ANGSTROEM)
--------------------------------
 Ti     0   0   0     0.000000000000     0.00000000     0.00000000
 Br     1   0   0     2.420000000000     0.00000000     0.00000000

---------------------------
INTERNAL COORDINATES (A.U.)
---------------------------
 Ti     0   0   0     0.000000000000     0.00000000     0.00000000
 Br     1   0   0     4.573137244089     0.00000000     0.00000000

---------------------
BASIS SET INFORMATION
---------------------
There are 2 groups of distinct atoms

 Group   1 Type Ti  : 17s13p7d2f1g contracted to 6s6p4d2f1g pattern {842111/631111/4111/11/1}
 Group   2 Type Br  : 18s14p9d1f contracted to 7s6p5d1f pattern {8421111/641111/51111/1}

Atom   0Ti   basis set group =>   1
Atom   1Br   basis set group =>   2
----------------------------------
AUXILIARY/JK BASIS SET INFORMATION
----------------------------------
There are 2 groups of distinct atoms

 Group   1 Type Ti  : 19s14p12d10f7g3h1i contracted to 16s13p11d9f5g3h1i pattern {4111111111111111/2111111111111/21111111111/211111111/31111/111/1}
 Group   2 Type Br  : 20s14p13d10f7g3h contracted to 17s13p12d9f6g3h pattern {41111111111111111/2111111111111/211111111111/211111111/211111/111}

Atom   0Ti   basis set group =>   1
Atom   1Br   basis set group =>   2


           ************************************************************
           *        Program running with 24 parallel MPI-processes    *
           *              working on a common directory               *
           ************************************************************
------------------------------------------------------------------------------
                           ORCA GTO INTEGRAL CALCULATION
------------------------------------------------------------------------------

                         BASIS SET STATISTICS AND STARTUP INFO

 # of primitive gaussian shells          ...   82
 # of primitive gaussian functions       ...  226
 # of contracted shells                  ...   38
 # of contracted basis functions         ...  124
 Highest angular momentum                ...    4
 Maximum contraction depth               ...    8
 Integral package used                   ... LIBINT
 Integral threshhold            Thresh   ...  1.000e-10
 Primitive cut-off              TCut     ...  1.000e-11


------------------------------ INTEGRAL EVALUATION ----------------------------


 * One electron integrals 
 Pre-screening matrix                    ... done
 Shell pair data                         ... done (   0.000 sec)



           ************************************************************
           *        Program running with 24 parallel MPI-processes    *
           *              working on a common directory               *
           ************************************************************
-------------------------------------------------------------------------------
                                 ORCA SCF
-------------------------------------------------------------------------------

------------
SCF SETTINGS
------------
Hamiltonian:
 Density Functional     Method          .... DFT(GTOs)
 Exchange Functional    Exchange        .... WB97M-V
 Correlation Functional Correlation     .... WB97M-V
 Gradients option       PostSCFGGA      .... off
 Hybrid DFT is turned on
   Fraction HF Exchange ScalHFX         ....  0.150000
   Scaling of DF-GGA-X  ScalDFX         ....  0.000000
   Scaling of DF-GGA-C  ScalDFC         ....  1.000000
   Scaling of DF-LDA-C  ScalLDAC        ....  1.000000
   Perturbative correction              ....  0.000000
   Density functional embedding theory  .... OFF
 Long-range corrected/Screened/Range-Separated Hybrid DFT is turned on
   Amount of maximum screened exact exchange              ....  0.850000
   Range separation parameter mu (erf(mu*r12)/r12)        ....  0.300000
   NL short-range parameter             ....  6.000000
   NL long-range parameter              ....  0.010000


General Settings:
 Integral files         IntName         .... TMD15_TiBr
 Hartree-Fock type      HFTyp           .... UHF
 Total Charge           Charge          ....    0
 Multiplicity           Mult            ....    4
 Number of Electrons    NEL             ....   57
 Basis Dimension        Dim             ....  124
 Nuclear Repulsion      ENuc            ....    168.3745662773 Eh

Convergence Acceleration:
 DIIS                   CNVDIIS         .... on
   Start iteration      DIISMaxIt       ....    12
   Startup error        DIISStart       ....  0.200000
   # of expansion vecs  DIISMaxEq       ....     5
   Bias factor          DIISBfac        ....   1.050
   Max. coefficient     DIISMaxC        ....  10.000
 Newton-Raphson         CNVNR           .... off
 SOSCF                  CNVSOSCF        .... off
 Level Shifting         CNVShift        .... on
   Level shift para.    LevelShift      ....    0.2500
   Turn off err/grad.   ShiftErr        ....    0.0010
 Zerner damping         CNVZerner       .... off
 Static damping         CNVDamp         .... on
   Fraction old density DampFac         ....    0.7000
   Max. Damping (<1)    DampMax         ....    0.9800
   Min. Damping (>=0)   DampMin         ....    0.0000
   Turn off err/grad.   DampErr         ....    0.1000
 Fernandez-Rico         CNVRico         .... off

SCF Procedure:
 Maximum # iterations   MaxIter         ....   125
 SCF integral mode      SCFMode         .... Direct
   Integral package                     .... LIBINT
 Reset frequency        DirectResetFreq ....    20
 Integral Threshold     Thresh          ....  1.000e-10 Eh
 Primitive CutOff       TCut            ....  1.000e-11 Eh

Convergence Tolerance:
 Convergence Check Mode ConvCheckMode   .... Total+1el-Energy
 Convergence forced     ConvForced      .... 0
 Energy Change          TolE            ....  1.000e-06 Eh
 1-El. energy change                    ....  1.000e-03 Eh
 DIIS Error             TolErr          ....  1.000e-06


Diagonalization of the overlap matrix:
Smallest eigenvalue                        ... 1.317e-03
Time for diagonalization                   ...    0.005 sec
Threshold for overlap eigenvalues          ... 1.000e-08
Number of eigenvalues below threshold      ... 0
Time for construction of square roots      ...    0.002 sec
Total time needed                          ...    0.007 sec

-------------------
DFT GRID GENERATION
-------------------

General Integration Accuracy     IntAcc      ...  4.670
Radial Grid Type                 RadialGrid  ... Gauss-Chebyshev
Angular Grid (max. acc.)         AngularGrid ... Lebedev-302
Angular grid pruning method      GridPruning ... 3 (G Style)
Weight generation scheme         WeightScheme... Becke
Basis function cutoff            BFCut       ...    1.0000e-10
Integration weight cutoff        WCut        ...    1.0000e-14
Grids for H and He will be reduced by one unit

# of grid points (after initial pruning)     ...  19280 (   0.0 sec)
# of grid points (after weights+screening)   ...  19254 (   0.0 sec)
nearest neighbour list constructed           ...    0.0 sec
Grid point re-assignment to atoms done       ...    0.0 sec
Grid point division into batches done        ...    0.2 sec
Reduced shell lists constructed in    0.2 sec

Total number of grid points                  ...    19254
Total number of batches                      ...      302
Average number of points per batch           ...       63
Average number of grid points per atom       ...     9627
Average number of shells per batch           ...     9.29 (24.44%)
Average number of basis functions per batch  ...    27.71 (22.35%)
Average number of large shells per batch     ...     5.79 (62.31%)
Average number of large basis fcns per batch ...    16.79 (60.57%)
Maximum spatial batch extension              ...  24.49, 24.19, 17.83 au
Average spatial batch extension              ...   0.84,  0.83,  0.67 au

Time for grid setup =    0.200 sec

------------------------------
INITIAL GUESS: MODEL POTENTIAL
------------------------------
Loading Hartree-Fock densities                     ... done
Calculating cut-offs                               ... done
Setting up the integral package                    ... done
Initializing the effective Hamiltonian             ... done
Starting the Coulomb interaction                   ... done (   0.0 sec)
Reading the grid                                   ... done
Mapping shells                                     ... done
Starting the XC term evaluation                    ... done (   0.0 sec)
  promolecular density results
     # of electrons  =     57.000000763
     EX              =   -130.118257582
     EC              =     -2.606826576
     EX+EC           =   -132.725084158
Transforming the Hamiltonian                       ... done (   0.0 sec)
Diagonalizing the Hamiltonian                      ... done (   0.0 sec)
Back transforming the eigenvectors                 ... done (   0.0 sec)
Now organizing SCF variables                       ... done
                      ------------------
                      INITIAL GUESS DONE (   0.3 sec)
                      ------------------
--------------
SCF ITERATIONS
--------------
ITER       Energy         Delta-E        Max-DP      RMS-DP      [F,P]     Damp
               ***  Starting incremental Fock matrix formation  ***
  0  -3423.5705747032   0.000000000000 0.02689629  0.00063809  0.1033408 0.7000
  1  -3423.5909728781  -0.020398174964 0.02219768  0.00049642  0.0523341 0.7000
                               ***Turning on DIIS***
  2  -3423.6017235174  -0.010750639263 0.03918170  0.00099042  0.0306780 0.0000
  3  -3423.6211888699  -0.019465352465 0.02796383  0.00046251  0.0277061 0.0000
  4  -3423.6245962759  -0.003407406082 0.01738260  0.00020855  0.0066137 0.0000
  5  -3423.6250322082  -0.000435932232 0.01631422  0.00013669  0.0031080 0.0000
  6  -3423.6252907611  -0.000258552956 0.01282139  0.00010647  0.0023738 0.0000
  7  -3423.6254060655  -0.000115304395 0.00873155  0.00007506  0.0017965 0.0000
  8  -3423.6254394193  -0.000033353736 0.00618690  0.00005458  0.0016047 0.0000
  9  -3423.6254416380  -0.000002218756 0.00681023  0.00005891  0.0015727 0.0000
 10  -3423.6254310344   0.000010603629 0.00665408  0.00005806  0.0014013 0.0000
 11  -3423.6254092704   0.000021763953 0.00913176  0.00007887  0.0011885 0.0000
 12  -3423.6253740646   0.000035205815 0.00640406  0.00007323  0.0008675 0.0000
 13  -3423.6252552924   0.000118772189 0.00650726  0.00006146  0.0005251 0.0000
 14  -3423.6251971862   0.000058106210 0.00156820  0.00002188  0.0001637 0.0000
 15  -3423.6251605618   0.000036624373 0.00047093  0.00000586  0.0000614 0.0000
 16  -3423.6251525337   0.000008028182 0.00028756  0.00000296  0.0000186 0.0000
 17  -3423.6251502184   0.000002315232 0.00008530  0.00000069  0.0000072 0.0000
                 **** Energy Check signals convergence ****

               *****************************************************
               *                     SUCCESS                       *
               *           SCF CONVERGED AFTER  18 CYCLES          *
               *****************************************************


Setting up the DFT-NL grid :

General Integration Accuracy     IntAcc      ...  4.340
Radial Grid Type                 RadialGrid  ... Gauss-Chebyshev
Angular Grid (max. acc.)         AngularGrid ... Lebedev-110
Angular grid pruning method      GridPruning ... 3 (G Style)
Weight generation scheme         WeightScheme... Becke
Basis function cutoff            BFCut       ...    1.0000e-10
Integration weight cutoff        WCut        ...    1.0000e-14
Grids for H and He will be reduced by one unit

# of grid points (after initial pruning)     ...   5862 (   0.0 sec)
# of grid points (after weights+screening)   ...   5839 (   0.0 sec)
nearest neighbour list constructed           ...    0.0 sec
Grid point re-assignment to atoms done       ...    0.0 sec
Grid point division into batches done        ...    0.0 sec
Reduced shell lists constructed in    0.0 sec

Total number of grid points                  ...     5839
Total number of batches                      ...       92
Average number of points per batch           ...       63
Average number of grid points per atom       ...     2920
Average number of shells per batch           ...    12.80 (33.68%)
Average number of basis functions per batch  ...    41.60 (33.55%)
Average number of large shells per batch     ...     9.60 (75.00%)
Average number of large basis fcns per batch ...    32.00 (76.92%)
Maximum spatial batch extension              ...  18.98, 28.73, 16.47 au
Average spatial batch extension              ...   0.76,  1.04,  0.71 au

Final grid set up in    0.0 sec

-------------------------------------------------------------------------------
                         DFT-NL dispersion correction                          
-------------------------------------------------------------------------------

SC Energy -3423.625150236 
NL    Energy 0.238312708 
SC+NL Energy -3423.386837528 
NL done in    0.0 sec
-------------------------------------------------------------------------------

----------------
TOTAL SCF ENERGY
----------------

Total Energy       :        -3423.38683753 Eh          -93155.09176 eV

Components:
Nuclear Repulsion  :          168.37456628 Eh            4581.70488 eV
Electronic Energy  :        -3591.76140381 Eh          -97736.79664 eV
One Electron Energy:        -5084.95982253 Eh         -138368.79130 eV
Two Electron Energy:         1493.19841872 Eh           40631.99466 eV

Virial components:
Potential Energy   :        -6842.42215765 Eh         -186191.77272 eV
Kinetic Energy     :         3419.03532012 Eh           93036.68095 eV
Virial Ratio       :            2.00127273


DFT components:
N(Alpha)           :       29.999999725436 electrons
N(Beta)            :       27.000001311284 electrons
N(Total)           :       57.000001036720 electrons
E(X)               :     -103.011177432692 Eh       
E(C)               :       -3.036672197362 Eh       
NL Energy, E(C,NL) :        0.238312708326 Eh       
E(XC)              :     -105.809536921728 Eh       
DFET-embed. en.    :        0.000000000000 Eh       

---------------
SCF CONVERGENCE
---------------

  Last Energy change         ...   -1.7861e-08  Tolerance :   1.0000e-06
  Last MAX-Density change    ...    6.2759e-05  Tolerance :   1.0000e-05
  Last RMS-Density change    ...    6.7116e-07  Tolerance :   1.0000e-06
  Last DIIS Error            ...    5.3535e-06  Tolerance :   1.0000e-06

             **** THE GBW FILE WAS UPDATED (TMD15_TiBr.gbw) ****
             **** DENSITY FILE WAS UPDATED (TMD15_TiBr.scfp) ****
             **** ENERGY FILE WAS UPDATED (TMD15_TiBr.en.tmp) ****
----------------------
UHF SPIN CONTAMINATION
----------------------

Warning: in a DFT calculation there is little theoretical justification to 
         calculate <S**2> as in Hartree-Fock theory. We will do it anyways
         but you should keep in mind that the values have only limited relevance

Expectation value of <S**2>     :     3.753868
Ideal value S*(S+1) for S=1.5   :     3.750000
Deviation                       :     0.003868

             **** THE GBW FILE WAS UPDATED (TMD15_TiBr.gbw) ****
             **** DENSITY FILE WAS UPDATED (TMD15_TiBr.scfp) ****
----------------
ORBITAL ENERGIES
----------------
                 SPIN UP ORBITALS
  NO   OCC          E(Eh)            E(eV) 
   0   1.0000    -483.459608    -13155.6047 
   1   1.0000    -179.258622     -4877.8751 
   2   1.0000     -62.765825     -1707.9449 
   3   1.0000     -56.451309     -1536.1182 
   4   1.0000     -56.450870     -1536.1063 
   5   1.0000     -56.450870     -1536.1063 
   6   1.0000     -20.050480      -545.6013 
   7   1.0000     -16.695172      -454.2987 
   8   1.0000     -16.685939      -454.0475 
   9   1.0000     -16.685939      -454.0475 
  10   1.0000      -8.848573      -240.7819 
  11   1.0000      -6.628591      -180.3731 
  12   1.0000      -6.626730      -180.3225 
  13   1.0000      -6.626730      -180.3225 
  14   1.0000      -2.710823       -73.7653 
  15   1.0000      -2.710077       -73.7450 
  16   1.0000      -2.710077       -73.7450 
  17   1.0000      -2.708552       -73.7034 
  18   1.0000      -2.708520       -73.7026 
  19   1.0000      -2.487977       -67.7013 
  20   1.0000      -1.598392       -43.4945 
  21   1.0000      -1.585250       -43.1368 
  22   1.0000      -1.585250       -43.1368 
  23   1.0000      -0.839428       -22.8420 
  24   1.0000      -0.402229       -10.9452 
  25   1.0000      -0.369159       -10.0453 
  26   1.0000      -0.369159       -10.0453 
  27   1.0000      -0.272560        -7.4167 
  28   1.0000      -0.272558        -7.4167 
  29   1.0000      -0.265314        -7.2196 
  30   0.0000      -0.023691        -0.6447 
  31   0.0000       0.000605         0.0165 
  32   0.0000       0.000605         0.0165 
  33   0.0000       0.035721         0.9720 
  34   0.0000       0.044762         1.2180 
  35   0.0000       0.044762         1.2180 
  36   0.0000       0.057548         1.5659 
  37   0.0000       0.077746         2.1156 
  38   0.0000       0.077746         2.1156 
  39   0.0000       0.094614         2.5746 
  40   0.0000       0.094614         2.5746 
  41   0.0000       0.106248         2.8912 
  42   0.0000       0.139196         3.7877 
  43   0.0000       0.139196         3.7877 
  44   0.0000       0.151086         4.1113 
  45   0.0000       0.177280         4.8240 
  46   0.0000       0.177280         4.8240 
  47   0.0000       0.202468         5.5094 
  48   0.0000       0.225246         6.1293 
  49   0.0000       0.225247         6.1293 
  50   0.0000       0.258838         7.0433 
  51   0.0000       0.280693         7.6381 
  52   0.0000       0.280716         7.6387 
  53   0.0000       0.280716         7.6387 
  54   0.0000       0.388912        10.5828 
  55   0.0000       0.388912        10.5828 
  56   0.0000       0.437429        11.9031 
  57   0.0000       0.486864        13.2482 
  58   0.0000       0.486864        13.2482 
  59   0.0000       0.533820        14.5260 
  60   0.0000       0.543508        14.7896 
  61   0.0000       0.543510        14.7897 
  62   0.0000       0.562791        15.3143 
  63   0.0000       0.562791        15.3143 
  64   0.0000       0.603798        16.4302 
  65   0.0000       0.603799        16.4302 
  66   0.0000       0.657322        17.8866 
  67   0.0000       0.668202        18.1827 
  68   0.0000       0.668202        18.1827 
  69   0.0000       0.728614        19.8266 
  70   0.0000       0.784636        21.3510 
  71   0.0000       0.784636        21.3510 
  72   0.0000       0.818930        22.2842 
  73   0.0000       0.818930        22.2842 
  74   0.0000       0.961828        26.1727 
  75   0.0000       0.961828        26.1727 
  76   0.0000       1.006974        27.4012 
  77   0.0000       1.207295        32.8522 
  78   0.0000       1.595914        43.4270 
  79   0.0000       1.595914        43.4270 
  80   0.0000       1.598520        43.4979 
  81   0.0000       1.621628        44.1267 
  82   0.0000       1.621638        44.1270 
  83   0.0000       1.633345        44.4456 
  84   0.0000       1.633345        44.4456 
  85   0.0000       1.652699        44.9722 
  86   0.0000       1.660470        45.1837 
  87   0.0000       1.660470        45.1837 
  88   0.0000       1.681926        45.7675 
  89   0.0000       1.681929        45.7676 
  90   0.0000       1.815222        49.3947 
  91   0.0000       1.815222        49.3947 
  92   0.0000       1.893068        51.5130 
  93   0.0000       1.893068        51.5130 
  94   0.0000       1.896027        51.5935 
  95   0.0000       2.005048        54.5601 
  96   0.0000       2.132496        58.0282 
  97   0.0000       2.132497        58.0282 
  98   0.0000       2.173519        59.1445 
  99   0.0000       2.173519        59.1445 
 100   0.0000       2.192974        59.6739 
 101   0.0000       2.469245        67.1916 
 102   0.0000       2.712981        73.8240 
 103   0.0000       2.713015        73.8249 
 104   0.0000       2.716352        73.9157 
 105   0.0000       2.716352        73.9157 
 106   0.0000       2.733073        74.3707 
 107   0.0000       2.733088        74.3711 
 108   0.0000       2.858939        77.7957 
 109   0.0000       2.858939        77.7957 
 110   0.0000       3.013408        81.9990 
 111   0.0000       3.082267        83.8727 
 112   0.0000       3.082267        83.8727 
 113   0.0000       3.099078        84.3302 
 114   0.0000       3.099091        84.3306 
 115   0.0000       3.197434        87.0066 
 116   0.0000       3.197434        87.0066 
 117   0.0000       3.498739        95.2055 
 118   0.0000       4.277262       116.3902 
 119   0.0000       4.277284       116.3908 
 120   0.0000       4.333008       117.9071 
 121   0.0000       4.333008       117.9071 
 122   0.0000       4.521863       123.0462 
 123   0.0000       7.690705       209.2747 

                 SPIN DOWN ORBITALS
  NO   OCC          E(Eh)            E(eV) 
   0   1.0000    -483.459642    -13155.6057 
   1   1.0000    -179.257775     -4877.8521 
   2   1.0000     -62.765825     -1707.9449 
   3   1.0000     -56.451347     -1536.1193 
   4   1.0000     -56.450888     -1536.1068 
   5   1.0000     -56.450888     -1536.1068 
   6   1.0000     -20.024150      -544.8848 
   7   1.0000     -16.683866      -453.9911 
   8   1.0000     -16.659423      -453.3259 
   9   1.0000     -16.659423      -453.3259 
  10   1.0000      -8.848609      -240.7829 
  11   1.0000      -6.628633      -180.3743 
  12   1.0000      -6.626778      -180.3238 
  13   1.0000      -6.626778      -180.3238 
  14   1.0000      -2.710828       -73.7654 
  15   1.0000      -2.710128       -73.7463 
  16   1.0000      -2.710128       -73.7463 
  17   1.0000      -2.708602       -73.7048 
  18   1.0000      -2.708570       -73.7039 
  19   1.0000      -2.411311       -65.6151 
  20   1.0000      -1.545151       -42.0457 
  21   1.0000      -1.480848       -40.2959 
  22   1.0000      -1.480848       -40.2959 
  23   1.0000      -0.838864       -22.8266 
  24   1.0000      -0.396865       -10.7993 
  25   1.0000      -0.368400       -10.0247 
  26   1.0000      -0.368400       -10.0247 
  27   0.0000      -0.178695        -4.8625 
  28   0.0000      -0.136486        -3.7140 
  29   0.0000      -0.136486        -3.7140 
  30   0.0000      -0.070291        -1.9127 
  31   0.0000      -0.031614        -0.8603 
  32   0.0000      -0.031611        -0.8602 
  33   0.0000       0.000065         0.0018 
  34   0.0000       0.009953         0.2708 
  35   0.0000       0.009954         0.2708 
  36   0.0000       0.039930         1.0866 
  37   0.0000       0.055405         1.5077 
  38   0.0000       0.055406         1.5077 
  39   0.0000       0.070737         1.9248 
  40   0.0000       0.070737         1.9249 
  41   0.0000       0.087998         2.3946 
  42   0.0000       0.094514         2.5719 
  43   0.0000       0.108965         2.9651 
  44   0.0000       0.108965         2.9651 
  45   0.0000       0.131881         3.5887 
  46   0.0000       0.131881         3.5887 
  47   0.0000       0.168189         4.5767 
  48   0.0000       0.210471         5.7272 
  49   0.0000       0.210471         5.7272 
  50   0.0000       0.218811         5.9542 
  51   0.0000       0.260470         7.0877 
  52   0.0000       0.260470         7.0877 
  53   0.0000       0.267279         7.2730 
  54   0.0000       0.356419         9.6987 
  55   0.0000       0.356419         9.6987 
  56   0.0000       0.416838        11.3427 
  57   0.0000       0.471258        12.8236 
  58   0.0000       0.471259        12.8236 
  59   0.0000       0.533767        14.5245 
  60   0.0000       0.546513        14.8714 
  61   0.0000       0.546518        14.8715 
  62   0.0000       0.559932        15.2365 
  63   0.0000       0.559933        15.2365 
  64   0.0000       0.595959        16.2169 
  65   0.0000       0.595969        16.2171 
  66   0.0000       0.648587        17.6490 
  67   0.0000       0.648588        17.6490 
  68   0.0000       0.654407        17.8073 
  69   0.0000       0.721715        19.6389 
  70   0.0000       0.788930        21.4679 
  71   0.0000       0.788931        21.4679 
  72   0.0000       0.813201        22.1283 
  73   0.0000       0.813211        22.1286 
  74   0.0000       0.964156        26.2360 
  75   0.0000       0.964156        26.2360 
  76   0.0000       1.005309        27.3558 
  77   0.0000       1.206804        32.8388 
  78   0.0000       1.605320        43.6830 
  79   0.0000       1.617923        44.0259 
  80   0.0000       1.617923        44.0259 
  81   0.0000       1.620000        44.0824 
  82   0.0000       1.620009        44.0827 
  83   0.0000       1.649605        44.8880 
  84   0.0000       1.649605        44.8880 
  85   0.0000       1.660132        45.1745 
  86   0.0000       1.660132        45.1745 
  87   0.0000       1.662096        45.2279 
  88   0.0000       1.681497        45.7558 
  89   0.0000       1.681499        45.7559 
  90   0.0000       1.812281        49.3147 
  91   0.0000       1.812281        49.3147 
  92   0.0000       1.891149        51.4608 
  93   0.0000       1.891149        51.4608 
  94   0.0000       1.899173        51.6791 
  95   0.0000       2.038306        55.4651 
  96   0.0000       2.196026        59.7569 
  97   0.0000       2.196026        59.7569 
  98   0.0000       2.198964        59.8369 
  99   0.0000       2.198998        59.8378 
 100   0.0000       2.224595        60.5343 
 101   0.0000       2.493030        67.8388 
 102   0.0000       2.738664        74.5228 
 103   0.0000       2.738664        74.5228 
 104   0.0000       2.751811        74.8806 
 105   0.0000       2.751844        74.8815 
 106   0.0000       2.769630        75.3655 
 107   0.0000       2.769714        75.3678 
 108   0.0000       2.886095        78.5346 
 109   0.0000       2.886095        78.5346 
 110   0.0000       3.051791        83.0435 
 111   0.0000       3.155354        85.8615 
 112   0.0000       3.155356        85.8616 
 113   0.0000       3.183631        86.6310 
 114   0.0000       3.183631        86.6310 
 115   0.0000       3.243110        88.2495 
 116   0.0000       3.243110        88.2495 
 117   0.0000       3.530593        96.0723 
 118   0.0000       4.276321       116.3646 
 119   0.0000       4.276340       116.3651 
 120   0.0000       4.332159       117.8840 
 121   0.0000       4.332159       117.8840 
 122   0.0000       4.523291       123.0850 
 123   0.0000       7.689708       209.2476 

                    ********************************
                    * MULLIKEN POPULATION ANALYSIS *
                    ********************************

--------------------------------------------
MULLIKEN ATOMIC CHARGES AND SPIN POPULATIONS
--------------------------------------------
   0 Ti:    0.288692    2.999062
   1 Br:   -0.288692    0.000938
Sum of atomic charges         :   -0.0000000
Sum of atomic spin populations:    3.0000000

-----------------------------------------------------
MULLIKEN REDUCED ORBITAL CHARGES AND SPIN POPULATIONS
-----------------------------------------------------
CHARGE
  0 Tis       :     6.747455  s :     6.747455
      pz      :     4.122742  p :    12.205252
      px      :     4.041255
      py      :     4.041255
      dz2     :     0.599246  d :     2.734938
      dxz     :     0.068520
      dyz     :     0.068520
      dx2y2   :     0.999326
      dxy     :     0.999326
      f0      :     0.008661  f :     0.022492
      f+1     :     0.006752
      f-1     :     0.006752
      f+2     :     0.000163
      f-2     :     0.000163
      f+3     :     0.000000
      f-3     :     0.000000
      g0      :     0.000612  g :     0.001171
      g+1     :     0.000279
      g-1     :     0.000279
      g+2     :     0.000000
      g-2     :     0.000000
      g+3     :     0.000000
      g-3     :     0.000000
      g+4     :     0.000000
      g-4     :     0.000000
  1 Brs       :     7.924896  s :     7.924896
      pz      :     5.596242  p :    17.355190
      px      :     5.879474
      py      :     5.879474
      dz2     :     1.999236  d :    10.006932
      dxz     :     2.003433
      dyz     :     2.003433
      dx2y2   :     2.000415
      dxy     :     2.000415
      f0      :     0.000908  f :     0.001674
      f+1     :     0.000287
      f-1     :     0.000287
      f+2     :     0.000096
      f-2     :     0.000096
      f+3     :     0.000000
      f-3     :     0.000000

SPIN
  0 Tis       :     0.516973  s :     0.516973
      pz      :     0.031589  p :     0.009051
      px      :    -0.011269
      py      :    -0.011269
      dz2     :     0.468405  d :     2.472016
      dxz     :     0.002484
      dyz     :     0.002484
      dx2y2   :     0.999321
      dxy     :     0.999321
      f0      :     0.000608  f :     0.000982
      f+1     :     0.000024
      f-1     :     0.000024
      f+2     :     0.000164
      f-2     :     0.000164
      f+3     :    -0.000000
      f-3     :    -0.000000
      g0      :     0.000059  g :     0.000040
      g+1     :    -0.000010
      g-1     :    -0.000010
      g+2     :     0.000000
      g-2     :     0.000000
      g+3     :    -0.000000
      g-3     :    -0.000000
      g+4     :    -0.000000
      g-4     :    -0.000000
  1 Brs       :     0.011526  s :     0.011526
      pz      :    -0.030314  p :    -0.014649
      px      :     0.007832
      py      :     0.007832
      dz2     :     0.000726  d :     0.003395
      dxz     :     0.000915
      dyz     :     0.000915
      dx2y2   :     0.000419
      dxy     :     0.000419
      f0      :     0.000427  f :     0.000667
      f+1     :     0.000024
      f-1     :     0.000024
      f+2     :     0.000096
      f-2     :     0.000096
      f+3     :    -0.000000
      f-3     :    -0.000000


                     *******************************
                     * LOEWDIN POPULATION ANALYSIS *
                     *******************************

-------------------------------------------
LOEWDIN ATOMIC CHARGES AND SPIN POPULATIONS
-------------------------------------------
   0 Ti:    0.033678    2.884917
   1 Br:   -0.033678    0.115083

----------------------------------------------------
LOEWDIN REDUCED ORBITAL CHARGES AND SPIN POPULATIONS
----------------------------------------------------
CHARGE
  0 Tis       :     6.510304  s :     6.510304
      pz      :     4.225853  p :    12.354267
      px      :     4.064207
      py      :     4.064207
      dz2     :     0.739902  d :     3.006516
      dxz     :     0.137674
      dyz     :     0.137674
      dx2y2   :     0.995633
      dxy     :     0.995633
      f0      :     0.042821  f :     0.091131
      f+1     :     0.023924
      f-1     :     0.023924
      f+2     :     0.000231
      f-2     :     0.000231
      f+3     :     0.000000
      f-3     :     0.000000
      g0      :     0.002313  g :     0.004103
      g+1     :     0.000894
      g-1     :     0.000894
      g+2     :     0.000001
      g-2     :     0.000001
      g+3     :     0.000000
      g-3     :     0.000000
      g+4     :     0.000000
      g-4     :     0.000000
  1 Brs       :     7.677071  s :     7.677071
      pz      :     5.731766  p :    17.268491
      px      :     5.768363
      py      :     5.768363
      dz2     :     2.068523  d :    10.086186
      dxz     :     2.004869
      dyz     :     2.004869
      dx2y2   :     2.003962
      dxy     :     2.003962
      f0      :     0.001446  f :     0.001930
      f+1     :     0.000069
      f-1     :     0.000069
      f+2     :     0.000172
      f-2     :     0.000172
      f+3     :     0.000000
      f-3     :     0.000000

SPIN
  0 Tis       :     0.384715  s :     0.384715
      pz      :     0.034153  p :     0.021725
      px      :    -0.006214
      py      :    -0.006214
      dz2     :     0.471431  d :     2.477572
      dxz     :     0.007440
      dyz     :     0.007440
      dx2y2   :     0.995630
      dxy     :     0.995631
      f0      :    -0.000380  f :     0.000885
      f+1     :     0.000404
      f-1     :     0.000404
      f+2     :     0.000229
      f-2     :     0.000228
      f+3     :    -0.000000
      f-3     :    -0.000000
      g0      :     0.000033  g :     0.000019
      g+1     :    -0.000008
      g-1     :    -0.000008
      g+2     :     0.000001
      g-2     :     0.000001
      g+3     :    -0.000000
      g-3     :    -0.000000
      g+4     :    -0.000000
      g-4     :    -0.000000
  1 Brs       :     0.034856  s :     0.034856
      pz      :     0.058720  p :     0.055057
      px      :    -0.001831
      py      :    -0.001831
      dz2     :     0.015999  d :     0.024341
      dxz     :     0.000203
      dyz     :     0.000203
      dx2y2   :     0.003968
      dxy     :     0.003968
      f0      :     0.000473  f :     0.000829
      f+1     :     0.000006
      f-1     :     0.000006
      f+2     :     0.000172
      f-2     :     0.000172
      f+3     :    -0.000000
      f-3     :    -0.000000


                      *****************************
                      * MAYER POPULATION ANALYSIS *
                      *****************************

  NA   - Mulliken gross atomic population
  ZA   - Total nuclear charge
  QA   - Mulliken gross atomic charge
  VA   - Mayer's total valence
  BVA  - Mayer's bonded valence
  FA   - Mayer's free valence

  ATOM       NA         ZA         QA         VA         BVA        FA
  0 Ti    21.7113    22.0000     0.2887     4.1342     1.1783     2.9559
  1 Br    35.2887    35.0000    -0.2887     1.1839     1.1783     0.0056

  Mayer bond orders larger than 0.100000
B(  0-Ti,  1-Br) :   1.1783 

-------
TIMINGS
-------

Total SCF time: 0 days 0 hours 0 min 7 sec 

Total time                  ....       7.506 sec
Sum of individual times     ....       7.278 sec  ( 97.0%)

Fock matrix formation       ....       6.856 sec  ( 91.4%)
  XC integration            ....       0.796 sec  ( 11.6% of F)
    Basis function eval.    ....       0.043 sec  (  5.4% of XC)
    Density eval.           ....       0.099 sec  ( 12.4% of XC)
    XC-Functional eval.     ....       0.029 sec  (  3.7% of XC)
    XC-Potential eval.      ....       0.189 sec  ( 23.7% of XC)
Diagonalization             ....       0.069 sec  (  0.9%)
Density matrix formation    ....       0.011 sec  (  0.2%)
Population analysis         ....       0.006 sec  (  0.1%)
Initial guess               ....       0.088 sec  (  1.2%)
Orbital Transformation      ....       0.000 sec  (  0.0%)
Orbital Orthonormalization  ....       0.000 sec  (  0.0%)
DIIS solution               ....       0.030 sec  (  0.4%)
Grid generation             ....       0.218 sec  (  2.9%)

-------------------------   --------------------
FINAL SINGLE POINT ENERGY     -3423.386837527970
-------------------------   --------------------


                            ***************************************
                            *     ORCA property calculations      *
                            ***************************************

                                    ---------------------
                                    Active property flags
                                    ---------------------
   (+) Dipole Moment


------------------------------------------------------------------------------
                       ORCA ELECTRIC PROPERTIES CALCULATION
------------------------------------------------------------------------------

Dipole Moment Calculation                       ... on
Quadrupole Moment Calculation                   ... off
Polarizability Calculation                      ... off
GBWName                                         ... TMD15_TiBr.gbw
Electron density file                           ... TMD15_TiBr.scfp
The origin for moment calculation is the CENTER OF MASS  = ( 0.000000,  0.000000  0.051038)

-------------
DIPOLE MOMENT
-------------
                                X             Y             Z
Electronic contribution:      0.00000       0.00000       0.73947
Nuclear contribution   :      0.00000       0.00000      -2.90920
                        -----------------------------------------
Total Dipole Moment    :      0.00000       0.00000      -2.16973
                        -----------------------------------------
Magnitude (a.u.)       :      2.16973
Magnitude (Debye)      :      5.51502



--------------------
Rotational spectrum 
--------------------
 
Rotational constants in cm-1:     0.000000     0.096120     0.096120 
Rotational constants in MHz :     0.000000  2881.611529  2881.611529 

 Dipole components along the rotational axes: 
x,y,z [a.u.] :    -2.169733     0.000000     0.000000 
x,y,z [Debye]:    -5.515023     0.000000     0.000001 

 

Timings for individual modules:

Sum of individual times         ...        8.553 sec (=   0.143 min)
GTO integral calculation        ...        0.677 sec (=   0.011 min)   7.9 %
SCF iterations                  ...        7.876 sec (=   0.131 min)  92.1 %
                             ****ORCA TERMINATED NORMALLY****
TOTAL RUN TIME: 0 days 0 hours 0 minutes 8 seconds 988 msec
