
                                 *****************
                                 * O   R   C   A *
                                 *****************

           --- An Ab Initio, DFT and Semiempirical electronic structure package ---

                  #######################################################
                  #                        -***-                        #
                  #          Department of theory and spectroscopy      #
                  #               Directorship: Frank Neese             #
                  #        Max Planck Institute fuer Kohlenforschung    #
                  #                Kaiser Wilhelm Platz 1               #
                  #                 D-45470 Muelheim/Ruhr               #
                  #                      Germany                        #
                  #                                                     #
                  #                  All rights reserved                #
                  #                        -***-                        #
                  #######################################################


                         Program Version 4.2.0 -  RELEASE  -


 With contributions from (in alphabetic order):
   Daniel Aravena         : Magnetic Suceptibility
   Michael Atanasov       : Ab Initio Ligand Field Theory (pilot matlab implementation)
   Alexander A. Auer      : GIAO ZORA, VPT2
   Ute Becker             : Parallelization
   Giovanni Bistoni       : ED, misc. LED, open-shell LED, HFLED
   Martin Brehm           : Molecular dynamics
   Dmytro Bykov           : SCF Hessian
   Vijay G. Chilkuri      : MRCI spin determinant printing, contributions to CSF-ICE
   Dipayan Datta          : RHF DLPNO-CCSD density
   Achintya Kumar Dutta   : EOM-CC, STEOM-CC
   Dmitry Ganyushin       : Spin-Orbit,Spin-Spin,Magnetic field MRCI
   Miquel Garcia          : C-PCM Hessian, Gaussian charge scheme
   Yang Guo               : DLPNO-NEVPT2, CIM, IAO-localization
   Andreas Hansen         : Spin unrestricted coupled pair/coupled cluster methods
   Benjamin Helmich-Paris : CASSCF linear response (MC-RPA)
   Lee Huntington         : MR-EOM, pCC
   Robert Izsak           : Overlap fitted RIJCOSX, COSX-SCS-MP3, EOM
   Christian Kollmar      : KDIIS, OOCD, Brueckner-CCSD(T), CCSD density
   Simone Kossmann        : Meta GGA functionals, TD-DFT gradient, OOMP2, MP2 Hessian
   Martin Krupicka        : AUTO-CI
   Lucas Lang             : DCDCAS
   Dagmar Lenk            : GEPOL surface, SMD
   Dimitrios Liakos       : Extrapolation schemes; Compound Job, initial MDCI parallelization
   Dimitrios Manganas     : Further ROCIS development; embedding schemes
   Dimitrios Pantazis     : SARC Basis sets
   Taras Petrenko         : DFT Hessian,TD-DFT gradient, ASA, ECA, R-Raman, ABS, FL, XAS/XES, NRVS
   Peter Pinski           : DLPNO-MP2, DLPNO-MP2 Gradient
   Christoph Reimann      : Effective Core Potentials
   Marius Retegan         : Local ZFS, SOC
   Christoph Riplinger    : Optimizer, TS searches, QM/MM, DLPNO-CCSD(T), (RO)-DLPNO pert. Triples
   Tobias Risthaus        : Range-separated hybrids, TD-DFT gradient, RPA, STAB
   Michael Roemelt        : Original ROCIS implementation
   Masaaki Saitow         : Open-shell DLPNO-CCSD energy and density
   Barbara Sandhoefer     : DKH picture change effects
   Avijit Sen             : IP-ROCIS
   Kantharuban Sivalingam : CASSCF convergence, NEVPT2, FIC-MRCI
   Bernardo de Souza      : ESD, SOC TD-DFT
   Georgi Stoychev        : AutoAux, RI-MP2 NMR
   Willem Van den Heuvel  : Paramagnetic NMR
   Boris Wezisla          : Elementary symmetry handling
   Frank Wennmohs         : Technical directorship


 We gratefully acknowledge several colleagues who have allowed us to
 interface, adapt or use parts of their codes:
   Stefan Grimme, W. Hujo, H. Kruse,             : VdW corrections, initial TS optimization,
                  C. Bannwarth                     DFT functionals, gCP, sTDA/sTD-DF
   Ed Valeev, F. Pavosevic, A. Kumar             : LibInt (2-el integral package), F12 methods
   Garnet Chan, S. Sharma, J. Yang, R. Olivares  : DMRG
   Ulf Ekstrom                                   : XCFun DFT Library
   Mihaly Kallay                                 : mrcc  (arbitrary order and MRCC methods)
   Andreas Klamt, Michael Diedenhofen            : otool_cosmo (COSMO solvation model)
   Jiri Pittner, Ondrej Demel                    : Mk-CCSD
   Frank Weinhold                                : gennbo (NPA and NBO analysis)
   Christopher J. Cramer and Donald G. Truhlar   : smd solvation model
   Lars Goerigk                                  : TD-DFT with DH, B97 family of functionals
   V. Asgeirsson, H. Jonsson                     : NEB implementation
   FAccTs GmbH                                   : IRC, NEB, NEB-TS, Multilevel, MM, QM/MM, CI optimization
   S Lehtola, MJT Oliveira, MAL Marques          : LibXC Library


 Your calculation uses the libint2 library for the computation of 2-el integrals
 For citations please refer to: http://libint.valeyev.net

 Your ORCA version has been built with support for libXC version: 4.2.3
 For citations please refer to: https://tddft.org/programs/libxc/

 This ORCA versions uses:
   CBLAS   interface :  Fast vector & matrix operations
   LAPACKE interface :  Fast linear algebra routines
   SCALAPACK package :  Parallel linear algebra routines


Your calculation utilizes the DFT-NL dispersion correction.
Cite in your paper:
Vydrov, O. A.; Van Voorhis, T. J. Chem. Phys. 2010, 133, 244103
Hujo, W.; Grimme, S. J. Chem. Theory Comput. 2011, 7, 3866 
   

----- Orbital basis set information -----
Your calculation utilizes the basis: def2-TZVPPD
   F. Weigend and R. Ahlrichs, Phys. Chem. Chem. Phys. 7, 3297 (2005).
   D. Rappoport and F. Furche, J. Chem. Phys. 133 134105 (2010).

----- AuxJK basis set information -----
Your calculation utilizes the auxiliary basis: def2/JK
   H-Ba, Hf-Rn: F. Weigend, J. Comput. Chem. 29, 167 (2008).

================================================================================
                                        WARNINGS
                       Please study these warnings very carefully!
================================================================================


WARNING: your system is open-shell and RHF/RKS was chosen
  ===> : WILL SWITCH to UHF/UKS


INFO   : the flag for use of LIBINT has been found!

================================================================================
                                       INPUT FILE
================================================================================
NAME = TMD13_Cu.in
|  1> #
|  2> # TMD13_Cu wB97M-V/Def2-TZVPPD
|  3> #
|  4> ! wb97m-v def2-tzvppd def2/jk grid4 nofinalgrid
|  5> 
|  6> *xyz 0 2
|  7> Cu       0.000000    0.000000    0.000000 
|  8> *
|  9> 
| 10> %maxcore 5000
| 11> 
| 12> %pal
| 13> nprocs = 24
| 14> end
| 15> 
| 16> 
| 17>                          ****END OF INPUT****
================================================================================

                       ****************************
                       * Single Point Calculation *
                       ****************************

---------------------------------
CARTESIAN COORDINATES (ANGSTROEM)
---------------------------------
  Cu     0.000000    0.000000    0.000000

----------------------------
CARTESIAN COORDINATES (A.U.)
----------------------------
  NO LB      ZA    FRAG     MASS         X           Y           Z
   0 Cu   29.0000    0    63.550    0.000000    0.000000    0.000000

--------------------------------
INTERNAL COORDINATES (ANGSTROEM)
--------------------------------
 Cu     0   0   0     0.000000000000     0.00000000     0.00000000

---------------------------
INTERNAL COORDINATES (A.U.)
---------------------------
 Cu     0   0   0     0.000000000000     0.00000000     0.00000000

---------------------
BASIS SET INFORMATION
---------------------
There are 1 groups of distinct atoms

 Group   1 Type Cu  : 17s13p7d2f1g contracted to 6s6p4d2f1g pattern {842111/631111/4111/11/1}

Atom   0Cu   basis set group =>   1
----------------------------------
AUXILIARY/JK BASIS SET INFORMATION
----------------------------------
There are 1 groups of distinct atoms

 Group   1 Type Cu  : 19s14p12d10f7g3h1i contracted to 16s13p11d9f5g3h1i pattern {4111111111111111/2111111111111/21111111111/211111111/31111/111/1}

Atom   0Cu   basis set group =>   1


           ************************************************************
           *        Program running with 24 parallel MPI-processes    *
           *              working on a common directory               *
           ************************************************************
------------------------------------------------------------------------------
                           ORCA GTO INTEGRAL CALCULATION
------------------------------------------------------------------------------

                         BASIS SET STATISTICS AND STARTUP INFO

 # of primitive gaussian shells          ...   40
 # of primitive gaussian functions       ...  114
 # of contracted shells                  ...   19
 # of contracted basis functions         ...   67
 Highest angular momentum                ...    4
 Maximum contraction depth               ...    8
 Integral package used                   ... LIBINT
 Integral threshhold            Thresh   ...  1.000e-10
 Primitive cut-off              TCut     ...  1.000e-11


------------------------------ INTEGRAL EVALUATION ----------------------------


 * One electron integrals 
 Pre-screening matrix                    ... done
 Shell pair data                         ... done (   0.000 sec)



           ************************************************************
           *        Program running with 24 parallel MPI-processes    *
           *              working on a common directory               *
           ************************************************************
-------------------------------------------------------------------------------
                                 ORCA SCF
-------------------------------------------------------------------------------

------------
SCF SETTINGS
------------
Hamiltonian:
 Density Functional     Method          .... DFT(GTOs)
 Exchange Functional    Exchange        .... WB97M-V
 Correlation Functional Correlation     .... WB97M-V
 Gradients option       PostSCFGGA      .... off
 Hybrid DFT is turned on
   Fraction HF Exchange ScalHFX         ....  0.150000
   Scaling of DF-GGA-X  ScalDFX         ....  0.000000
   Scaling of DF-GGA-C  ScalDFC         ....  1.000000
   Scaling of DF-LDA-C  ScalLDAC        ....  1.000000
   Perturbative correction              ....  0.000000
   Density functional embedding theory  .... OFF
 Long-range corrected/Screened/Range-Separated Hybrid DFT is turned on
   Amount of maximum screened exact exchange              ....  0.850000
   Range separation parameter mu (erf(mu*r12)/r12)        ....  0.300000
   NL short-range parameter             ....  6.000000
   NL long-range parameter              ....  0.010000


General Settings:
 Integral files         IntName         .... TMD13_Cu
 Hartree-Fock type      HFTyp           .... UHF
 Total Charge           Charge          ....    0
 Multiplicity           Mult            ....    2
 Number of Electrons    NEL             ....   29
 Basis Dimension        Dim             ....   67
 Nuclear Repulsion      ENuc            ....      0.0000000000 Eh

Convergence Acceleration:
 DIIS                   CNVDIIS         .... on
   Start iteration      DIISMaxIt       ....    12
   Startup error        DIISStart       ....  0.200000
   # of expansion vecs  DIISMaxEq       ....     5
   Bias factor          DIISBfac        ....   1.050
   Max. coefficient     DIISMaxC        ....  10.000
 Newton-Raphson         CNVNR           .... off
 SOSCF                  CNVSOSCF        .... off
 Level Shifting         CNVShift        .... on
   Level shift para.    LevelShift      ....    0.2500
   Turn off err/grad.   ShiftErr        ....    0.0010
 Zerner damping         CNVZerner       .... off
 Static damping         CNVDamp         .... on
   Fraction old density DampFac         ....    0.7000
   Max. Damping (<1)    DampMax         ....    0.9800
   Min. Damping (>=0)   DampMin         ....    0.0000
   Turn off err/grad.   DampErr         ....    0.1000
 Fernandez-Rico         CNVRico         .... off

SCF Procedure:
 Maximum # iterations   MaxIter         ....   125
 SCF integral mode      SCFMode         .... Direct
   Integral package                     .... LIBINT
 Reset frequency        DirectResetFreq ....    20
 Integral Threshold     Thresh          ....  1.000e-10 Eh
 Primitive CutOff       TCut            ....  1.000e-11 Eh

Convergence Tolerance:
 Convergence Check Mode ConvCheckMode   .... Total+1el-Energy
 Convergence forced     ConvForced      .... 0
 Energy Change          TolE            ....  1.000e-06 Eh
 1-El. energy change                    ....  1.000e-03 Eh
 DIIS Error             TolErr          ....  1.000e-06


Diagonalization of the overlap matrix:
Smallest eigenvalue                        ... 5.235e-02
Time for diagonalization                   ...    0.002 sec
Threshold for overlap eigenvalues          ... 1.000e-08
Number of eigenvalues below threshold      ... 0
Time for construction of square roots      ...    0.001 sec
Total time needed                          ...    0.004 sec

-------------------
DFT GRID GENERATION
-------------------

General Integration Accuracy     IntAcc      ...  4.670
Radial Grid Type                 RadialGrid  ... Gauss-Chebyshev
Angular Grid (max. acc.)         AngularGrid ... Lebedev-302
Angular grid pruning method      GridPruning ... 3 (G Style)
Weight generation scheme         WeightScheme... Becke
Basis function cutoff            BFCut       ...    1.0000e-10
Integration weight cutoff        WCut        ...    1.0000e-14
Grids for H and He will be reduced by one unit

# of grid points (after initial pruning)     ...   9556 (   0.0 sec)
# of grid points (after weights+screening)   ...   9556 (   0.0 sec)
Grid point division into batches done        ...    0.1 sec
Reduced shell lists constructed in    0.1 sec

Total number of grid points                  ...     9556
Total number of batches                      ...      150
Average number of points per batch           ...       63
Average number of grid points per atom       ...     9556
Average number of shells per batch           ...     3.62 (19.08%)
Average number of basis functions per batch  ...    10.62 (15.86%)
Average number of large shells per batch     ...     2.75 (75.86%)
Average number of large basis fcns per batch ...     8.25 (77.65%)
Maximum spatial batch extension              ...  22.45, 20.42, 20.42 au
Average spatial batch extension              ...   0.87,  0.82,  0.80 au

Time for grid setup =    0.122 sec

------------------------------
INITIAL GUESS: MODEL POTENTIAL
------------------------------
Loading Hartree-Fock densities                     ... done
Calculating cut-offs                               ... done
Setting up the integral package                    ... done
Initializing the effective Hamiltonian             ... done
Starting the Coulomb interaction                   ... done (   0.0 sec)
Reading the grid                                   ... done
Mapping shells                                     ... done
Starting the XC term evaluation                    ... done (   0.0 sec)
  promolecular density results
     # of electrons  =     29.000019956
     EX              =    -65.435863027
     EC              =     -1.335809900
     EX+EC           =    -66.771672928
Transforming the Hamiltonian                       ... done (   0.0 sec)
Diagonalizing the Hamiltonian                      ... done (   0.0 sec)
Back transforming the eigenvectors                 ... done (   0.0 sec)
Now organizing SCF variables                       ... done
                      ------------------
                      INITIAL GUESS DONE (   0.2 sec)
                      ------------------
--------------
SCF ITERATIONS
--------------
ITER       Energy         Delta-E        Max-DP      RMS-DP      [F,P]     Damp
               ***  Starting incremental Fock matrix formation  ***
  0  -1640.4634094210   0.000000000000 0.04490581  0.00110551  0.2297096 0.7000
  1  -1640.4858146162  -0.022405195226 0.03887170  0.00057627  0.0409904 0.7000
                               ***Turning on DIIS***
  2  -1640.4925733098  -0.006758693585 0.08823650  0.00116511  0.0201305 0.0000
  3  -1640.5119635504  -0.019390240595 0.00813500  0.00013865  0.0073949 0.0000
  4  -1640.5120056501  -0.000042099703 0.00967640  0.00012028  0.0024000 0.0000
  5  -1640.5118970188   0.000108631355 0.00673539  0.00008248  0.0012063 0.0000
  6  -1640.5118212012   0.000075817527 0.00780329  0.00009552  0.0004828 0.0000
  7  -1640.5117262410   0.000094960254 0.00320816  0.00003939  0.0001471 0.0000
  8  -1640.5116860162   0.000040224810 0.00030677  0.00000381  0.0000122 0.0000
                            ***DIIS convergence achieved***

               *****************************************************
               *                     SUCCESS                       *
               *           SCF CONVERGED AFTER   9 CYCLES          *
               *****************************************************


Setting up the DFT-NL grid :

General Integration Accuracy     IntAcc      ...  4.340
Radial Grid Type                 RadialGrid  ... Gauss-Chebyshev
Angular Grid (max. acc.)         AngularGrid ... Lebedev-110
Angular grid pruning method      GridPruning ... 3 (G Style)
Weight generation scheme         WeightScheme... Becke
Basis function cutoff            BFCut       ...    1.0000e-10
Integration weight cutoff        WCut        ...    1.0000e-14
Grids for H and He will be reduced by one unit

# of grid points (after initial pruning)     ...   2912 (   0.0 sec)
# of grid points (after weights+screening)   ...   2912 (   0.0 sec)
Grid point division into batches done        ...    0.0 sec
Reduced shell lists constructed in    0.0 sec

Total number of grid points                  ...     2912
Total number of batches                      ...       46
Average number of points per batch           ...       63
Average number of grid points per atom       ...     2912
Average number of shells per batch           ...     4.67 (24.56%)
Average number of basis functions per batch  ...    14.00 (20.90%)
Average number of large shells per batch     ...     4.67 (100.00%)
Average number of large basis fcns per batch ...    14.00 (100.00%)
Maximum spatial batch extension              ...  17.39, 26.34, 26.34 au
Average spatial batch extension              ...   0.76,  1.15,  1.15 au

Final grid set up in    0.0 sec

-------------------------------------------------------------------------------
                         DFT-NL dispersion correction                          
-------------------------------------------------------------------------------

SC Energy -1640.511682118 
NL    Energy 0.124034844 
SC+NL Energy -1640.387647274 
NL done in    0.0 sec
-------------------------------------------------------------------------------

----------------
TOTAL SCF ENERGY
----------------

Total Energy       :        -1640.38764727 Eh          -44637.21719 eV

Components:
Nuclear Repulsion  :            0.00000000 Eh               0.00000 eV
Electronic Energy  :        -1640.38764727 Eh          -44637.21719 eV
One Electron Energy:        -2287.47744170 Eh          -62245.42568 eV
Two Electron Energy:          647.08979442 Eh           17608.20849 eV

Virial components:
Potential Energy   :        -3278.59833702 Eh          -89215.19636 eV
Kinetic Energy     :         1638.21068974 Eh           44577.97917 eV
Virial Ratio       :            2.00132886


DFT components:
N(Alpha)           :       15.000000121151 electrons
N(Beta)            :       14.000000113926 electrons
N(Total)           :       29.000000235077 electrons
E(X)               :      -51.758179483296 Eh       
E(C)               :       -1.588099698626 Eh       
NL Energy, E(C,NL) :        0.124034844307 Eh       
E(XC)              :      -53.222244337616 Eh       
DFET-embed. en.    :        0.000000000000 Eh       

---------------
SCF CONVERGENCE
---------------

  Last Energy change         ...    3.8980e-06  Tolerance :   1.0000e-06
  Last MAX-Density change    ...    4.7574e-06  Tolerance :   1.0000e-05
  Last RMS-Density change    ...    2.0027e-07  Tolerance :   1.0000e-06
  Last DIIS Error            ...    1.4236e-06  Tolerance :   1.0000e-06

             **** THE GBW FILE WAS UPDATED (TMD13_Cu.gbw) ****
             **** DENSITY FILE WAS UPDATED (TMD13_Cu.scfp) ****
             **** ENERGY FILE WAS UPDATED (TMD13_Cu.en.tmp) ****
----------------------
UHF SPIN CONTAMINATION
----------------------

Warning: in a DFT calculation there is little theoretical justification to 
         calculate <S**2> as in Hartree-Fock theory. We will do it anyways
         but you should keep in mind that the values have only limited relevance

Expectation value of <S**2>     :     0.753655
Ideal value S*(S+1) for S=0.5   :     0.750000
Deviation                       :     0.003655

             **** THE GBW FILE WAS UPDATED (TMD13_Cu.gbw) ****
             **** DENSITY FILE WAS UPDATED (TMD13_Cu.scfp) ****
----------------
ORBITAL ENERGIES
----------------
                 SPIN UP ORBITALS
  NO   OCC          E(Eh)            E(eV) 
   0   1.0000    -323.542588     -8804.0414 
   1   1.0000     -39.052814     -1062.6811 
   2   1.0000     -34.153690      -929.3692 
   3   1.0000     -34.153690      -929.3692 
   4   1.0000     -34.153690      -929.3692 
   5   1.0000      -4.443817      -120.9224 
   6   1.0000      -2.907764       -79.1243 
   7   1.0000      -2.907764       -79.1243 
   8   1.0000      -2.907764       -79.1243 
   9   1.0000      -0.379557       -10.3283 
  10   1.0000      -0.379557       -10.3283 
  11   1.0000      -0.379557       -10.3283 
  12   1.0000      -0.379557       -10.3283 
  13   1.0000      -0.379557       -10.3283 
  14   1.0000      -0.269278        -7.3274 
  15   0.0000       0.028692         0.7808 
  16   0.0000       0.028692         0.7808 
  17   0.0000       0.028692         0.7808 
  18   0.0000       0.132377         3.6022 
  19   0.0000       0.172411         4.6915 
  20   0.0000       0.172411         4.6915 
  21   0.0000       0.172411         4.6915 
  22   0.0000       0.238568         6.4918 
  23   0.0000       0.238568         6.4918 
  24   0.0000       0.238568         6.4918 
  25   0.0000       0.238568         6.4918 
  26   0.0000       0.238568         6.4918 
  27   0.0000       0.745862        20.2959 
  28   0.0000       0.745862        20.2959 
  29   0.0000       0.745862        20.2959 
  30   0.0000       0.969367        26.3778 
  31   0.0000       0.969367        26.3778 
  32   0.0000       0.969367        26.3778 
  33   0.0000       0.969367        26.3778 
  34   0.0000       0.969367        26.3778 
  35   0.0000       3.026587        82.3576 
  36   0.0000       3.116867        84.8143 
  37   0.0000       3.116867        84.8143 
  38   0.0000       3.116867        84.8143 
  39   0.0000       3.554121        96.7125 
  40   0.0000       3.554121        96.7125 
  41   0.0000       3.554121        96.7125 
  42   0.0000       3.554121        96.7125 
  43   0.0000       3.554121        96.7125 
  44   0.0000       3.554121        96.7125 
  45   0.0000       3.554121        96.7125 
  46   0.0000       3.799723       103.3957 
  47   0.0000       3.799723       103.3957 
  48   0.0000       3.799723       103.3957 
  49   0.0000       3.799723       103.3957 
  50   0.0000       3.799723       103.3957 
  51   0.0000      13.159863       358.0981 
  52   0.0000      13.159863       358.0981 
  53   0.0000      13.159863       358.0981 
  54   0.0000      13.159863       358.0981 
  55   0.0000      13.159863       358.0981 
  56   0.0000      13.159863       358.0981 
  57   0.0000      13.159863       358.0981 
  58   0.0000      13.159863       358.0981 
  59   0.0000      13.159863       358.0981 
  60   0.0000      13.337153       362.9224 
  61   0.0000      13.337153       362.9224 
  62   0.0000      13.337153       362.9224 
  63   0.0000      13.337153       362.9224 
  64   0.0000      13.337153       362.9224 
  65   0.0000      13.337153       362.9224 
  66   0.0000      13.337153       362.9224 

                 SPIN DOWN ORBITALS
  NO   OCC          E(Eh)            E(eV) 
   0   1.0000    -323.541339     -8804.0074 
   1   1.0000     -39.050871     -1062.6282 
   2   1.0000     -34.152274      -929.3306 
   3   1.0000     -34.152274      -929.3306 
   4   1.0000     -34.152274      -929.3306 
   5   1.0000      -4.439499      -120.8049 
   6   1.0000      -2.903882       -79.0187 
   7   1.0000      -2.903882       -79.0187 
   8   1.0000      -2.903882       -79.0187 
   9   1.0000      -0.373843       -10.1728 
  10   1.0000      -0.373843       -10.1728 
  11   1.0000      -0.373843       -10.1728 
  12   1.0000      -0.373843       -10.1728 
  13   1.0000      -0.373843       -10.1728 
  14   0.0000      -0.106781        -2.9056 
  15   0.0000      -0.062314        -1.6957 
  16   0.0000      -0.062314        -1.6956 
  17   0.0000      -0.062314        -1.6956 
  18   0.0000       0.092214         2.5093 
  19   0.0000       0.138902         3.7797 
  20   0.0000       0.138903         3.7797 
  21   0.0000       0.138903         3.7797 
  22   0.0000       0.143149         3.8953 
  23   0.0000       0.143149         3.8953 
  24   0.0000       0.143150         3.8953 
  25   0.0000       0.143150         3.8953 
  26   0.0000       0.143150         3.8953 
  27   0.0000       0.723259        19.6809 
  28   0.0000       0.723259        19.6809 
  29   0.0000       0.723259        19.6809 
  30   0.0000       0.965110        26.2620 
  31   0.0000       0.965110        26.2620 
  32   0.0000       0.965110        26.2620 
  33   0.0000       0.965110        26.2620 
  34   0.0000       0.965110        26.2620 
  35   0.0000       3.029175        82.4280 
  36   0.0000       3.117211        84.8236 
  37   0.0000       3.117211        84.8236 
  38   0.0000       3.117211        84.8236 
  39   0.0000       3.561539        96.9144 
  40   0.0000       3.561539        96.9144 
  41   0.0000       3.561539        96.9144 
  42   0.0000       3.561539        96.9144 
  43   0.0000       3.561539        96.9144 
  44   0.0000       3.561539        96.9144 
  45   0.0000       3.561539        96.9144 
  46   0.0000       3.803379       103.4952 
  47   0.0000       3.803379       103.4952 
  48   0.0000       3.803379       103.4952 
  49   0.0000       3.803379       103.4952 
  50   0.0000       3.803379       103.4952 
  51   0.0000      13.160818       358.1241 
  52   0.0000      13.160818       358.1241 
  53   0.0000      13.160818       358.1241 
  54   0.0000      13.160818       358.1241 
  55   0.0000      13.160818       358.1241 
  56   0.0000      13.160818       358.1241 
  57   0.0000      13.160818       358.1241 
  58   0.0000      13.160818       358.1241 
  59   0.0000      13.160818       358.1241 
  60   0.0000      13.341148       363.0311 
  61   0.0000      13.341148       363.0311 
  62   0.0000      13.341148       363.0311 
  63   0.0000      13.341148       363.0311 
  64   0.0000      13.341148       363.0311 
  65   0.0000      13.341148       363.0311 
  66   0.0000      13.341148       363.0311 

                    ********************************
                    * MULLIKEN POPULATION ANALYSIS *
                    ********************************

--------------------------------------------
MULLIKEN ATOMIC CHARGES AND SPIN POPULATIONS
--------------------------------------------
   0 Cu:    0.000000    1.000000
Sum of atomic charges         :    0.0000000
Sum of atomic spin populations:    1.0000000

-----------------------------------------------------
MULLIKEN REDUCED ORBITAL CHARGES AND SPIN POPULATIONS
-----------------------------------------------------
CHARGE
  0 Cus       :     7.000000  s :     7.000000
      pz      :     4.000000  p :    12.000000
      px      :     4.000000
      py      :     4.000000
      dz2     :     2.000000  d :    10.000000
      dxz     :     2.000000
      dyz     :     2.000000
      dx2y2   :     2.000000
      dxy     :     2.000000
      f0      :     0.000000  f :     0.000000
      f+1     :     0.000000
      f-1     :     0.000000
      f+2     :     0.000000
      f-2     :     0.000000
      f+3     :     0.000000
      f-3     :     0.000000
      g0      :     0.000000  g :     0.000000
      g+1     :     0.000000
      g-1     :     0.000000
      g+2     :     0.000000
      g-2     :     0.000000
      g+3     :     0.000000
      g-3     :     0.000000
      g+4     :     0.000000
      g-4     :     0.000000

SPIN
  0 Cus       :     1.000000  s :     1.000000
      pz      :     0.000000  p :    -0.000000
      px      :    -0.000000
      py      :    -0.000000
      dz2     :     0.000000  d :     0.000000
      dxz     :     0.000000
      dyz     :     0.000000
      dx2y2   :     0.000000
      dxy     :     0.000000
      f0      :     0.000000  f :     0.000000
      f+1     :     0.000000
      f-1     :    -0.000000
      f+2     :    -0.000000
      f-2     :    -0.000000
      f+3     :    -0.000000
      f-3     :    -0.000000
      g0      :    -0.000000  g :     0.000000
      g+1     :     0.000000
      g-1     :     0.000000
      g+2     :    -0.000000
      g-2     :     0.000000
      g+3     :     0.000000
      g-3     :     0.000000
      g+4     :     0.000000
      g-4     :     0.000000


                     *******************************
                     * LOEWDIN POPULATION ANALYSIS *
                     *******************************

-------------------------------------------
LOEWDIN ATOMIC CHARGES AND SPIN POPULATIONS
-------------------------------------------
   0 Cu:   -0.000000    1.000000

----------------------------------------------------
LOEWDIN REDUCED ORBITAL CHARGES AND SPIN POPULATIONS
----------------------------------------------------
CHARGE
  0 Cus       :     7.000000  s :     7.000000
      pz      :     4.000000  p :    12.000000
      px      :     4.000000
      py      :     4.000000
      dz2     :     2.000000  d :    10.000000
      dxz     :     2.000000
      dyz     :     2.000000
      dx2y2   :     2.000000
      dxy     :     2.000000
      f0      :     0.000000  f :     0.000000
      f+1     :     0.000000
      f-1     :     0.000000
      f+2     :     0.000000
      f-2     :     0.000000
      f+3     :     0.000000
      f-3     :     0.000000
      g0      :     0.000000  g :     0.000000
      g+1     :     0.000000
      g-1     :     0.000000
      g+2     :     0.000000
      g-2     :     0.000000
      g+3     :     0.000000
      g-3     :     0.000000
      g+4     :     0.000000
      g-4     :     0.000000

SPIN
  0 Cus       :     1.000000  s :     1.000000
      pz      :     0.000000  p :    -0.000000
      px      :    -0.000000
      py      :    -0.000000
      dz2     :     0.000000  d :     0.000000
      dxz     :     0.000000
      dyz     :     0.000000
      dx2y2   :     0.000000
      dxy     :     0.000000
      f0      :     0.000000  f :     0.000000
      f+1     :     0.000000
      f-1     :    -0.000000
      f+2     :    -0.000000
      f-2     :    -0.000000
      f+3     :    -0.000000
      f-3     :    -0.000000
      g0      :    -0.000000  g :     0.000000
      g+1     :     0.000000
      g-1     :     0.000000
      g+2     :    -0.000000
      g-2     :     0.000000
      g+3     :     0.000000
      g-3     :     0.000000
      g+4     :     0.000000
      g-4     :     0.000000


                      *****************************
                      * MAYER POPULATION ANALYSIS *
                      *****************************

  NA   - Mulliken gross atomic population
  ZA   - Total nuclear charge
  QA   - Mulliken gross atomic charge
  VA   - Mayer's total valence
  BVA  - Mayer's bonded valence
  FA   - Mayer's free valence

  ATOM       NA         ZA         QA         VA         BVA        FA
  0 Cu    29.0000    29.0000     0.0000     1.0073     0.0000     1.0073

  Mayer bond orders larger than 0.100000


-------
TIMINGS
-------

Total SCF time: 0 days 0 hours 0 min 1 sec 

Total time                  ....       1.894 sec
Sum of individual times     ....       1.697 sec  ( 89.6%)

Fock matrix formation       ....       1.458 sec  ( 77.0%)
  XC integration            ....       0.100 sec  (  6.8% of F)
    Basis function eval.    ....       0.006 sec  (  6.1% of XC)
    Density eval.           ....       0.012 sec  ( 12.4% of XC)
    XC-Functional eval.     ....       0.007 sec  (  6.8% of XC)
    XC-Potential eval.      ....       0.025 sec  ( 24.6% of XC)
Diagonalization             ....       0.013 sec  (  0.7%)
Density matrix formation    ....       0.003 sec  (  0.2%)
Population analysis         ....       0.004 sec  (  0.2%)
Initial guess               ....       0.082 sec  (  4.3%)
Orbital Transformation      ....       0.000 sec  (  0.0%)
Orbital Orthonormalization  ....       0.000 sec  (  0.0%)
DIIS solution               ....       0.006 sec  (  0.3%)
Grid generation             ....       0.131 sec  (  6.9%)

-------------------------   --------------------
FINAL SINGLE POINT ENERGY     -1640.387647273866
-------------------------   --------------------


                            ***************************************
                            *     ORCA property calculations      *
                            ***************************************

                                    ---------------------
                                    Active property flags
                                    ---------------------
   (+) Dipole Moment


------------------------------------------------------------------------------
                       ORCA ELECTRIC PROPERTIES CALCULATION
------------------------------------------------------------------------------

Dipole Moment Calculation                       ... on
Quadrupole Moment Calculation                   ... off
Polarizability Calculation                      ... off
GBWName                                         ... TMD13_Cu.gbw
Electron density file                           ... TMD13_Cu.scfp
The origin for moment calculation is the CENTER OF MASS  = ( 0.000000,  0.000000  0.000000)

-------------
DIPOLE MOMENT
-------------
                                X             Y             Z
Electronic contribution:      0.00000      -0.00000      -0.00000
Nuclear contribution   :      0.00000       0.00000       0.00000
                        -----------------------------------------
Total Dipole Moment    :      0.00000      -0.00000      -0.00000
                        -----------------------------------------
Magnitude (a.u.)       :      0.00000
Magnitude (Debye)      :      0.00000



--------------------
Rotational spectrum 
--------------------
 
Rotational constants in cm-1:     0.000000     0.000000     0.000000 
Rotational constants in MHz :     0.000000     0.000000     0.000000 

 Dipole components along the rotational axes: 
x,y,z [a.u.] :     0.000000    -0.000000    -0.000000 
x,y,z [Debye]:     0.000000    -0.000000    -0.000000 

 

Timings for individual modules:

Sum of individual times         ...        2.939 sec (=   0.049 min)
GTO integral calculation        ...        0.673 sec (=   0.011 min)  22.9 %
SCF iterations                  ...        2.265 sec (=   0.038 min)  77.1 %
                             ****ORCA TERMINATED NORMALLY****
TOTAL RUN TIME: 0 days 0 hours 0 minutes 3 seconds 369 msec
