
                                 *****************
                                 * O   R   C   A *
                                 *****************

           --- An Ab Initio, DFT and Semiempirical electronic structure package ---

                  #######################################################
                  #                        -***-                        #
                  #          Department of theory and spectroscopy      #
                  #               Directorship: Frank Neese             #
                  #        Max Planck Institute fuer Kohlenforschung    #
                  #                Kaiser Wilhelm Platz 1               #
                  #                 D-45470 Muelheim/Ruhr               #
                  #                      Germany                        #
                  #                                                     #
                  #                  All rights reserved                #
                  #                        -***-                        #
                  #######################################################


                         Program Version 4.2.0 -  RELEASE  -


 With contributions from (in alphabetic order):
   Daniel Aravena         : Magnetic Suceptibility
   Michael Atanasov       : Ab Initio Ligand Field Theory (pilot matlab implementation)
   Alexander A. Auer      : GIAO ZORA, VPT2
   Ute Becker             : Parallelization
   Giovanni Bistoni       : ED, misc. LED, open-shell LED, HFLED
   Martin Brehm           : Molecular dynamics
   Dmytro Bykov           : SCF Hessian
   Vijay G. Chilkuri      : MRCI spin determinant printing, contributions to CSF-ICE
   Dipayan Datta          : RHF DLPNO-CCSD density
   Achintya Kumar Dutta   : EOM-CC, STEOM-CC
   Dmitry Ganyushin       : Spin-Orbit,Spin-Spin,Magnetic field MRCI
   Miquel Garcia          : C-PCM Hessian, Gaussian charge scheme
   Yang Guo               : DLPNO-NEVPT2, CIM, IAO-localization
   Andreas Hansen         : Spin unrestricted coupled pair/coupled cluster methods
   Benjamin Helmich-Paris : CASSCF linear response (MC-RPA)
   Lee Huntington         : MR-EOM, pCC
   Robert Izsak           : Overlap fitted RIJCOSX, COSX-SCS-MP3, EOM
   Christian Kollmar      : KDIIS, OOCD, Brueckner-CCSD(T), CCSD density
   Simone Kossmann        : Meta GGA functionals, TD-DFT gradient, OOMP2, MP2 Hessian
   Martin Krupicka        : AUTO-CI
   Lucas Lang             : DCDCAS
   Dagmar Lenk            : GEPOL surface, SMD
   Dimitrios Liakos       : Extrapolation schemes; Compound Job, initial MDCI parallelization
   Dimitrios Manganas     : Further ROCIS development; embedding schemes
   Dimitrios Pantazis     : SARC Basis sets
   Taras Petrenko         : DFT Hessian,TD-DFT gradient, ASA, ECA, R-Raman, ABS, FL, XAS/XES, NRVS
   Peter Pinski           : DLPNO-MP2, DLPNO-MP2 Gradient
   Christoph Reimann      : Effective Core Potentials
   Marius Retegan         : Local ZFS, SOC
   Christoph Riplinger    : Optimizer, TS searches, QM/MM, DLPNO-CCSD(T), (RO)-DLPNO pert. Triples
   Tobias Risthaus        : Range-separated hybrids, TD-DFT gradient, RPA, STAB
   Michael Roemelt        : Original ROCIS implementation
   Masaaki Saitow         : Open-shell DLPNO-CCSD energy and density
   Barbara Sandhoefer     : DKH picture change effects
   Avijit Sen             : IP-ROCIS
   Kantharuban Sivalingam : CASSCF convergence, NEVPT2, FIC-MRCI
   Bernardo de Souza      : ESD, SOC TD-DFT
   Georgi Stoychev        : AutoAux, RI-MP2 NMR
   Willem Van den Heuvel  : Paramagnetic NMR
   Boris Wezisla          : Elementary symmetry handling
   Frank Wennmohs         : Technical directorship


 We gratefully acknowledge several colleagues who have allowed us to
 interface, adapt or use parts of their codes:
   Stefan Grimme, W. Hujo, H. Kruse,             : VdW corrections, initial TS optimization,
                  C. Bannwarth                     DFT functionals, gCP, sTDA/sTD-DF
   Ed Valeev, F. Pavosevic, A. Kumar             : LibInt (2-el integral package), F12 methods
   Garnet Chan, S. Sharma, J. Yang, R. Olivares  : DMRG
   Ulf Ekstrom                                   : XCFun DFT Library
   Mihaly Kallay                                 : mrcc  (arbitrary order and MRCC methods)
   Andreas Klamt, Michael Diedenhofen            : otool_cosmo (COSMO solvation model)
   Jiri Pittner, Ondrej Demel                    : Mk-CCSD
   Frank Weinhold                                : gennbo (NPA and NBO analysis)
   Christopher J. Cramer and Donald G. Truhlar   : smd solvation model
   Lars Goerigk                                  : TD-DFT with DH, B97 family of functionals
   V. Asgeirsson, H. Jonsson                     : NEB implementation
   FAccTs GmbH                                   : IRC, NEB, NEB-TS, Multilevel, MM, QM/MM, CI optimization
   S Lehtola, MJT Oliveira, MAL Marques          : LibXC Library


 Your calculation uses the libint2 library for the computation of 2-el integrals
 For citations please refer to: http://libint.valeyev.net

 Your ORCA version has been built with support for libXC version: 4.2.3
 For citations please refer to: https://tddft.org/programs/libxc/

 This ORCA versions uses:
   CBLAS   interface :  Fast vector & matrix operations
   LAPACKE interface :  Fast linear algebra routines
   SCALAPACK package :  Parallel linear algebra routines


Your calculation utilizes the DFT-NL dispersion correction.
Cite in your paper:
Vydrov, O. A.; Van Voorhis, T. J. Chem. Phys. 2010, 133, 244103
Hujo, W.; Grimme, S. J. Chem. Theory Comput. 2011, 7, 3866 
   

----- Orbital basis set information -----
Your calculation utilizes the basis: def2-TZVPPD
   F. Weigend and R. Ahlrichs, Phys. Chem. Chem. Phys. 7, 3297 (2005).
   D. Rappoport and F. Furche, J. Chem. Phys. 133 134105 (2010).

----- AuxJK basis set information -----
Your calculation utilizes the auxiliary basis: def2/JK
   H-Ba, Hf-Rn: F. Weigend, J. Comput. Chem. 29, 167 (2008).

================================================================================
                                        WARNINGS
                       Please study these warnings very carefully!
================================================================================


INFO   : the flag for use of LIBINT has been found!

================================================================================
                                       INPUT FILE
================================================================================
NAME = TMD14_Zn.in
|  1> #
|  2> # TMD14_Zn wB97M-V/Def2-TZVPPD
|  3> #
|  4> ! wb97m-v def2-tzvppd def2/jk grid4 nofinalgrid
|  5> 
|  6> *xyz 0 1
|  7> Zn       0.000000    0.000000    0.000000 
|  8> *
|  9> 
| 10> %maxcore 5000
| 11> 
| 12> %pal
| 13> nprocs = 24
| 14> end
| 15> 
| 16> 
| 17>                          ****END OF INPUT****
================================================================================

                       ****************************
                       * Single Point Calculation *
                       ****************************

---------------------------------
CARTESIAN COORDINATES (ANGSTROEM)
---------------------------------
  Zn     0.000000    0.000000    0.000000

----------------------------
CARTESIAN COORDINATES (A.U.)
----------------------------
  NO LB      ZA    FRAG     MASS         X           Y           Z
   0 Zn   30.0000    0    65.380    0.000000    0.000000    0.000000

--------------------------------
INTERNAL COORDINATES (ANGSTROEM)
--------------------------------
 Zn     0   0   0     0.000000000000     0.00000000     0.00000000

---------------------------
INTERNAL COORDINATES (A.U.)
---------------------------
 Zn     0   0   0     0.000000000000     0.00000000     0.00000000

---------------------
BASIS SET INFORMATION
---------------------
There are 1 groups of distinct atoms

 Group   1 Type Zn  : 17s13p7d2f1g contracted to 6s6p4d2f1g pattern {842111/631111/4111/11/1}

Atom   0Zn   basis set group =>   1
----------------------------------
AUXILIARY/JK BASIS SET INFORMATION
----------------------------------
There are 1 groups of distinct atoms

 Group   1 Type Zn  : 19s14p12d10f7g3h1i contracted to 16s13p11d9f5g3h1i pattern {4111111111111111/2111111111111/21111111111/211111111/31111/111/1}

Atom   0Zn   basis set group =>   1


           ************************************************************
           *        Program running with 24 parallel MPI-processes    *
           *              working on a common directory               *
           ************************************************************
------------------------------------------------------------------------------
                           ORCA GTO INTEGRAL CALCULATION
------------------------------------------------------------------------------

                         BASIS SET STATISTICS AND STARTUP INFO

 # of primitive gaussian shells          ...   40
 # of primitive gaussian functions       ...  114
 # of contracted shells                  ...   19
 # of contracted basis functions         ...   67
 Highest angular momentum                ...    4
 Maximum contraction depth               ...    8
 Integral package used                   ... LIBINT
 Integral threshhold            Thresh   ...  1.000e-10
 Primitive cut-off              TCut     ...  1.000e-11


------------------------------ INTEGRAL EVALUATION ----------------------------


 * One electron integrals 
 Pre-screening matrix                    ... done
 Shell pair data                         ... done (   0.000 sec)



           ************************************************************
           *        Program running with 24 parallel MPI-processes    *
           *              working on a common directory               *
           ************************************************************
-------------------------------------------------------------------------------
                                 ORCA SCF
-------------------------------------------------------------------------------

------------
SCF SETTINGS
------------
Hamiltonian:
 Density Functional     Method          .... DFT(GTOs)
 Exchange Functional    Exchange        .... WB97M-V
 Correlation Functional Correlation     .... WB97M-V
 Gradients option       PostSCFGGA      .... off
 Hybrid DFT is turned on
   Fraction HF Exchange ScalHFX         ....  0.150000
   Scaling of DF-GGA-X  ScalDFX         ....  0.000000
   Scaling of DF-GGA-C  ScalDFC         ....  1.000000
   Scaling of DF-LDA-C  ScalLDAC        ....  1.000000
   Perturbative correction              ....  0.000000
   Density functional embedding theory  .... OFF
 Long-range corrected/Screened/Range-Separated Hybrid DFT is turned on
   Amount of maximum screened exact exchange              ....  0.850000
   Range separation parameter mu (erf(mu*r12)/r12)        ....  0.300000
   NL short-range parameter             ....  6.000000
   NL long-range parameter              ....  0.010000


General Settings:
 Integral files         IntName         .... TMD14_Zn
 Hartree-Fock type      HFTyp           .... RHF
 Total Charge           Charge          ....    0
 Multiplicity           Mult            ....    1
 Number of Electrons    NEL             ....   30
 Basis Dimension        Dim             ....   67
 Nuclear Repulsion      ENuc            ....      0.0000000000 Eh

Convergence Acceleration:
 DIIS                   CNVDIIS         .... on
   Start iteration      DIISMaxIt       ....    12
   Startup error        DIISStart       ....  0.200000
   # of expansion vecs  DIISMaxEq       ....     5
   Bias factor          DIISBfac        ....   1.050
   Max. coefficient     DIISMaxC        ....  10.000
 Newton-Raphson         CNVNR           .... off
 SOSCF                  CNVSOSCF        .... off
 Level Shifting         CNVShift        .... on
   Level shift para.    LevelShift      ....    0.2500
   Turn off err/grad.   ShiftErr        ....    0.0010
 Zerner damping         CNVZerner       .... off
 Static damping         CNVDamp         .... on
   Fraction old density DampFac         ....    0.7000
   Max. Damping (<1)    DampMax         ....    0.9800
   Min. Damping (>=0)   DampMin         ....    0.0000
   Turn off err/grad.   DampErr         ....    0.1000
 Fernandez-Rico         CNVRico         .... off

SCF Procedure:
 Maximum # iterations   MaxIter         ....   125
 SCF integral mode      SCFMode         .... Direct
   Integral package                     .... LIBINT
 Reset frequency        DirectResetFreq ....    20
 Integral Threshold     Thresh          ....  1.000e-10 Eh
 Primitive CutOff       TCut            ....  1.000e-11 Eh

Convergence Tolerance:
 Convergence Check Mode ConvCheckMode   .... Total+1el-Energy
 Convergence forced     ConvForced      .... 0
 Energy Change          TolE            ....  1.000e-06 Eh
 1-El. energy change                    ....  1.000e-03 Eh
 DIIS Error             TolErr          ....  1.000e-06


Diagonalization of the overlap matrix:
Smallest eigenvalue                        ... 6.068e-02
Time for diagonalization                   ...    0.003 sec
Threshold for overlap eigenvalues          ... 1.000e-08
Number of eigenvalues below threshold      ... 0
Time for construction of square roots      ...    0.001 sec
Total time needed                          ...    0.004 sec

-------------------
DFT GRID GENERATION
-------------------

General Integration Accuracy     IntAcc      ...  4.670
Radial Grid Type                 RadialGrid  ... Gauss-Chebyshev
Angular Grid (max. acc.)         AngularGrid ... Lebedev-302
Angular grid pruning method      GridPruning ... 3 (G Style)
Weight generation scheme         WeightScheme... Becke
Basis function cutoff            BFCut       ...    1.0000e-10
Integration weight cutoff        WCut        ...    1.0000e-14
Grids for H and He will be reduced by one unit

# of grid points (after initial pruning)     ...   9640 (   0.0 sec)
# of grid points (after weights+screening)   ...   9640 (   0.0 sec)
Grid point division into batches done        ...    0.1 sec
Reduced shell lists constructed in    0.1 sec

Total number of grid points                  ...     9640
Total number of batches                      ...      151
Average number of points per batch           ...       63
Average number of grid points per atom       ...     9640
Average number of shells per batch           ...     3.75 (19.74%)
Average number of basis functions per batch  ...    11.00 (16.42%)
Average number of large shells per batch     ...     2.62 (70.00%)
Average number of large basis fcns per batch ...     6.12 (55.68%)
Maximum spatial batch extension              ...  22.45, 20.42, 18.83 au
Average spatial batch extension              ...   0.86,  0.81,  0.78 au

Time for grid setup =    0.121 sec

------------------------------
INITIAL GUESS: MODEL POTENTIAL
------------------------------
Loading Hartree-Fock densities                     ... done
Calculating cut-offs                               ... done
Setting up the integral package                    ... done
Initializing the effective Hamiltonian             ... done
Starting the Coulomb interaction                   ... done (   0.0 sec)
Reading the grid                                   ... done
Mapping shells                                     ... done
Starting the XC term evaluation                    ... done (   0.0 sec)
  promolecular density results
     # of electrons  =     30.000011373
     EX              =    -69.527438408
     EC              =     -1.405541621
     EX+EC           =    -70.932980029
Transforming the Hamiltonian                       ... done (   0.0 sec)
Diagonalizing the Hamiltonian                      ... done (   0.0 sec)
Back transforming the eigenvectors                 ... done (   0.0 sec)
Now organizing SCF variables                       ... done
                      ------------------
                      INITIAL GUESS DONE (   0.2 sec)
                      ------------------
--------------
SCF ITERATIONS
--------------
ITER       Energy         Delta-E        Max-DP      RMS-DP      [F,P]     Damp
               ***  Starting incremental Fock matrix formation  ***
  0  -1779.3875065073   0.000000000000 0.02848937  0.00145076  0.2277593 0.7000
  1  -1779.4049331212  -0.017426613870 0.01869319  0.00064263  0.0729025 0.7000
                               ***Turning on DIIS***
  2  -1779.4112179777  -0.006284856486 0.01776849  0.00079904  0.0202482 0.0000
  3  -1779.4248382621  -0.013620284450 0.02193425  0.00051389  0.0299675 0.0000
  4  -1779.4254934675  -0.000655205414 0.01665717  0.00031387  0.0075624 0.0000
  5  -1779.4255548700  -0.000061402460 0.00944304  0.00017260  0.0012465 0.0000
  6  -1779.4255634237  -0.000008553686 0.00795504  0.00014534  0.0006008 0.0000
  7  -1779.4255660395  -0.000002615800 0.00117601  0.00002152  0.0001112 0.0000
                 **** Energy Check signals convergence ****

               *****************************************************
               *                     SUCCESS                       *
               *           SCF CONVERGED AFTER   8 CYCLES          *
               *****************************************************


Setting up the DFT-NL grid :

General Integration Accuracy     IntAcc      ...  4.340
Radial Grid Type                 RadialGrid  ... Gauss-Chebyshev
Angular Grid (max. acc.)         AngularGrid ... Lebedev-110
Angular grid pruning method      GridPruning ... 3 (G Style)
Weight generation scheme         WeightScheme... Becke
Basis function cutoff            BFCut       ...    1.0000e-10
Integration weight cutoff        WCut        ...    1.0000e-14
Grids for H and He will be reduced by one unit

# of grid points (after initial pruning)     ...   2912 (   0.0 sec)
# of grid points (after weights+screening)   ...   2912 (   0.0 sec)
Grid point division into batches done        ...    0.0 sec
Reduced shell lists constructed in    0.0 sec

Total number of grid points                  ...     2912
Total number of batches                      ...       46
Average number of points per batch           ...       63
Average number of grid points per atom       ...     2912
Average number of shells per batch           ...     4.67 (24.56%)
Average number of basis functions per batch  ...    14.00 (20.90%)
Average number of large shells per batch     ...     4.00 (85.71%)
Average number of large basis fcns per batch ...    10.67 (76.19%)
Maximum spatial batch extension              ...  17.39, 26.34, 26.34 au
Average spatial batch extension              ...   0.76,  1.15,  1.15 au

Final grid set up in    0.0 sec

-------------------------------------------------------------------------------
                         DFT-NL dispersion correction                          
-------------------------------------------------------------------------------

SC Energy -1779.425566094 
NL    Energy 0.128209525 
SC+NL Energy -1779.297356569 
NL done in    0.0 sec
-------------------------------------------------------------------------------

----------------
TOTAL SCF ENERGY
----------------

Total Energy       :        -1779.29735657 Eh          -48417.14255 eV

Components:
Nuclear Repulsion  :            0.00000000 Eh               0.00000 eV
Electronic Energy  :        -1779.29735657 Eh          -48417.14255 eV
One Electron Energy:        -2482.78792784 Eh          -67560.09421 eV
Two Electron Energy:          703.49057127 Eh           19142.95165 eV

Virial components:
Potential Energy   :        -3556.45609371 Eh          -96776.09031 eV
Kinetic Energy     :         1777.15873714 Eh           48358.94776 eV
Virial Ratio       :            2.00120339


DFT components:
N(Alpha)           :       14.999999137065 electrons
N(Beta)            :       14.999999137065 electrons
N(Total)           :       29.999998274130 electrons
E(X)               :      -54.892075528537 Eh       
E(C)               :       -1.663295717108 Eh       
NL Energy, E(C,NL) :        0.128209525064 Eh       
E(XC)              :      -56.427161720581 Eh       
DFET-embed. en.    :        0.000000000000 Eh       

---------------
SCF CONVERGENCE
---------------

  Last Energy change         ...   -5.4777e-08  Tolerance :   1.0000e-06
  Last MAX-Density change    ...    1.7255e-05  Tolerance :   1.0000e-05
  Last RMS-Density change    ...    3.3559e-07  Tolerance :   1.0000e-06
  Last DIIS Error            ...    5.8715e-06  Tolerance :   1.0000e-06

             **** THE GBW FILE WAS UPDATED (TMD14_Zn.gbw) ****
             **** DENSITY FILE WAS UPDATED (TMD14_Zn.scfp) ****
             **** ENERGY FILE WAS UPDATED (TMD14_Zn.en.tmp) ****
             **** THE GBW FILE WAS UPDATED (TMD14_Zn.gbw) ****
             **** DENSITY FILE WAS UPDATED (TMD14_Zn.scfp) ****
----------------
ORBITAL ENERGIES
----------------

  NO   OCC          E(Eh)            E(eV) 
   0   2.0000    -347.809857     -9464.3874 
   1   2.0000     -42.465766     -1155.5522 
   2   2.0000     -37.336027     -1015.9649 
   3   2.0000     -37.336027     -1015.9649 
   4   2.0000     -37.336027     -1015.9649 
   5   2.0000      -4.974222      -135.3555 
   6   2.0000      -3.332107       -90.6712 
   7   2.0000      -3.332107       -90.6712 
   8   2.0000      -3.332107       -90.6712 
   9   2.0000      -0.585688       -15.9374 
  10   2.0000      -0.585688       -15.9374 
  11   2.0000      -0.585688       -15.9374 
  12   2.0000      -0.585688       -15.9374 
  13   2.0000      -0.585688       -15.9374 
  14   2.0000      -0.319901        -8.7050 
  15   0.0000       0.012324         0.3353 
  16   0.0000       0.012324         0.3354 
  17   0.0000       0.012324         0.3354 
  18   0.0000       0.081891         2.2284 
  19   0.0000       0.081892         2.2284 
  20   0.0000       0.081892         2.2284 
  21   0.0000       0.191784         5.2187 
  22   0.0000       0.316618         8.6156 
  23   0.0000       0.316618         8.6156 
  24   0.0000       0.316618         8.6156 
  25   0.0000       0.316618         8.6156 
  26   0.0000       0.316618         8.6156 
  27   0.0000       0.332703         9.0533 
  28   0.0000       0.332703         9.0533 
  29   0.0000       0.332703         9.0533 
  30   0.0000       1.298475        35.3333 
  31   0.0000       1.298475        35.3333 
  32   0.0000       1.298475        35.3333 
  33   0.0000       1.298475        35.3333 
  34   0.0000       1.298475        35.3333 
  35   0.0000       2.500482        68.0416 
  36   0.0000       2.500482        68.0416 
  37   0.0000       2.500482        68.0416 
  38   0.0000       3.549041        96.5743 
  39   0.0000       4.020015       109.3902 
  40   0.0000       4.020015       109.3902 
  41   0.0000       4.020015       109.3902 
  42   0.0000       4.020015       109.3902 
  43   0.0000       4.020015       109.3902 
  44   0.0000       4.020015       109.3902 
  45   0.0000       4.020015       109.3902 
  46   0.0000       4.941647       134.4691 
  47   0.0000       4.941647       134.4691 
  48   0.0000       4.941647       134.4691 
  49   0.0000       4.941647       134.4691 
  50   0.0000       4.941647       134.4691 
  51   0.0000      14.449776       393.1984 
  52   0.0000      14.449776       393.1984 
  53   0.0000      14.449776       393.1984 
  54   0.0000      14.449776       393.1984 
  55   0.0000      14.449776       393.1984 
  56   0.0000      14.449776       393.1984 
  57   0.0000      14.449776       393.1984 
  58   0.0000      14.449776       393.1984 
  59   0.0000      14.449776       393.1984 
  60   0.0000      15.218554       414.1179 
  61   0.0000      15.218554       414.1179 
  62   0.0000      15.218554       414.1179 
  63   0.0000      15.218554       414.1179 
  64   0.0000      15.218554       414.1179 
  65   0.0000      15.218554       414.1179 
  66   0.0000      15.218554       414.1179 

                    ********************************
                    * MULLIKEN POPULATION ANALYSIS *
                    ********************************

-----------------------
MULLIKEN ATOMIC CHARGES
-----------------------
   0 Zn:   -0.000000
Sum of atomic charges:   -0.0000000

--------------------------------
MULLIKEN REDUCED ORBITAL CHARGES
--------------------------------
  0 Zns       :     8.000000  s :     8.000000
      pz      :     4.000000  p :    12.000000
      px      :     4.000000
      py      :     4.000000
      dz2     :     2.000000  d :    10.000000
      dxz     :     2.000000
      dyz     :     2.000000
      dx2y2   :     2.000000
      dxy     :     2.000000
      f0      :     0.000000  f :     0.000000
      f+1     :     0.000000
      f-1     :     0.000000
      f+2     :     0.000000
      f-2     :     0.000000
      f+3     :     0.000000
      f-3     :     0.000000
      g0      :     0.000000  g :     0.000000
      g+1     :     0.000000
      g-1     :     0.000000
      g+2     :     0.000000
      g-2     :     0.000000
      g+3     :     0.000000
      g-3     :     0.000000
      g+4     :     0.000000
      g-4     :     0.000000


                     *******************************
                     * LOEWDIN POPULATION ANALYSIS *
                     *******************************

----------------------
LOEWDIN ATOMIC CHARGES
----------------------
   0 Zn:   -0.000000

-------------------------------
LOEWDIN REDUCED ORBITAL CHARGES
-------------------------------
  0 Zns       :     8.000000  s :     8.000000
      pz      :     4.000000  p :    12.000000
      px      :     4.000000
      py      :     4.000000
      dz2     :     2.000000  d :    10.000000
      dxz     :     2.000000
      dyz     :     2.000000
      dx2y2   :     2.000000
      dxy     :     2.000000
      f0      :     0.000000  f :     0.000000
      f+1     :     0.000000
      f-1     :     0.000000
      f+2     :     0.000000
      f-2     :     0.000000
      f+3     :     0.000000
      f-3     :     0.000000
      g0      :     0.000000  g :     0.000000
      g+1     :     0.000000
      g-1     :     0.000000
      g+2     :     0.000000
      g-2     :     0.000000
      g+3     :     0.000000
      g-3     :     0.000000
      g+4     :     0.000000
      g-4     :     0.000000


                      *****************************
                      * MAYER POPULATION ANALYSIS *
                      *****************************

  NA   - Mulliken gross atomic population
  ZA   - Total nuclear charge
  QA   - Mulliken gross atomic charge
  VA   - Mayer's total valence
  BVA  - Mayer's bonded valence
  FA   - Mayer's free valence

  ATOM       NA         ZA         QA         VA         BVA        FA
  0 Zn    30.0000    30.0000    -0.0000    -0.0000     0.0000    -0.0000

  Mayer bond orders larger than 0.100000


--------------------------
ATOM BASIS FOR ELEMENT Zn
--------------------------
 NewGTO Zn
 S 17
    1     405924.310279999976         0.000236949350
    2      60846.955735000003         0.001837362769
    3      13847.343091999999         0.009556660705
    4       3919.615855100000         0.038872815853
    5       1276.359416700000         0.126750687516
    6        458.672544350000         0.301714296420
    7        178.287252460000         0.433813329745
    8         70.612192837000         0.230349811236
    9        443.880779500000        -0.000178942580
   10        137.558752670000        -0.000848123915
   11         22.268083479000         0.003973474583
   12          9.521731060600         0.003776952562
   13         14.874114065000         0.000957369881
   14          2.464751761200        -0.002970043763
   15          1.011327223800         0.001620705179
   16          0.149198520900        -0.000429204119
   17          0.051441873000         0.000193643213
 S 17
    1     405924.310279999976         0.000076174774
    2      60846.955735000003         0.000590677686
    3      13847.343091999999         0.003072287264
    4       3919.615855100000         0.012496881573
    5       1276.359416700000         0.040747969923
    6        458.672544350000         0.096995490255
    7        178.287252460000         0.139462853094
    8         70.612192837000         0.074053146093
    9        443.880779500000         0.026103341966
   10        137.558752670000         0.123720517564
   11         22.268083479000        -0.579632673410
   12          9.521731060600        -0.550964921203
   13         14.874114065000         0.014823112747
   14          2.464751761200        -0.045985668053
   15          1.011327223800         0.012594002537
   16          0.149198520900        -0.002652018520
   17          0.051441873000         0.001171438968
 S 17
    1     405924.310279999976         0.000028769898
    2      60846.955735000003         0.000223088774
    3      13847.343091999999         0.001160349911
    4       3919.615855100000         0.004719856631
    5       1276.359416700000         0.015389805442
    6        458.672544350000         0.036633523748
    7        178.287252460000         0.052672714239
    8         70.612192837000         0.027968596054
    9        443.880779500000         0.011793075352
   10        137.558752670000         0.055894965023
   11         22.268083479000        -0.261868836671
   12          9.521731060600        -0.248917201497
   13         14.874114065000        -0.242337748413
   14          2.464751761200         0.751803176944
   15          1.011327223800         0.469720652568
   16          0.149198520900         0.015174757610
   17          0.051441873000        -0.005138490684
 S 17
    1     405924.310279999976         0.000006747861
    2      60846.955735000003         0.000052324551
    3      13847.343091999999         0.000272155280
    4       3919.615855100000         0.001107022881
    5       1276.359416700000         0.003609615311
    6        458.672544350000         0.008592241709
    7        178.287252460000         0.012354167601
    8         70.612192837000         0.006559918702
    9        443.880779500000         0.002288539538
   10        137.558752670000         0.010846860009
   11         22.268083479000        -0.050817718751
   12          9.521731060600        -0.048304351517
   13         14.874114065000        -0.080342036748
   14          2.464751761200         0.249244696151
   15          1.011327223800         0.244745287816
   16          0.149198520900        -0.701114409408
   17          0.051441873000        -0.440081209931
 S 17
    1     405924.310279999976         0.000005380070
    2      60846.955735000003         0.000041718365
    3      13847.343091999999         0.000216989409
    4       3919.615855100000         0.000882629360
    5       1276.359416700000         0.002877946341
    6        458.672544350000         0.006850594443
    7        178.287252460000         0.009849978013
    8         70.612192837000         0.005230223279
    9        443.880779500000         0.002177503282
   10        137.558752670000         0.010320587816
   11         22.268083479000        -0.048352124811
   12          9.521731060600        -0.045960702111
   13         14.874114065000        -0.055533052773
   14          2.464751761200         0.172279910057
   15          1.011327223800         0.353029153109
   16          0.149198520900        -1.902058540428
   17          0.051441873000         1.771356486888
 S 17
    1     405924.310279999976        -0.000039448146
    2      60846.955735000003        -0.000305890495
    3      13847.343091999999        -0.001591025858
    4       3919.615855100000        -0.006471680550
    5       1276.359416700000        -0.021101891930
    6        458.672544350000        -0.050230437417
    7        178.287252460000        -0.072222740417
    8         70.612192837000        -0.038349431613
    9        443.880779500000         0.001769524314
   10        137.558752670000         0.008386913224
   11         22.268083479000        -0.039292827327
   12          9.521731060600        -0.037349463730
   13         14.874114065000         0.881607877297
   14          2.464751761200        -2.735007679623
   15          1.011327223800         2.813018564377
   16          0.149198520900        -1.137374801760
   17          0.051441873000         0.517906806028
 P 13
    1       2205.350853400000         0.002617890892
    2        522.353006990000         0.021330976531
    3        167.730555420000         0.100827171400
    4         62.670045373000         0.292691099879
    5         25.109749456000         0.474663801838
    6         10.225142681000         0.275941951588
    7         40.713442521000        -0.000525404309
    8          5.624709069600         0.009723543650
    9          2.227994911600         0.016723021040
   10          0.833547416900        -0.005614007751
   11          0.162455000000         0.001718851709
   12          0.047769000000        -0.001143075454
   13          0.021234841500         0.000537542475
 P 13
    1       2205.350853400000         0.001023257103
    2        522.353006990000         0.008337655827
    3        167.730555420000         0.039410396983
    4         62.670045373000         0.114404403886
    5         25.109749456000         0.185532219183
    6         10.225142681000         0.107857650922
    7         40.713442521000         0.018550919392
    8          5.624709069600        -0.343317843823
    9          2.227994911600        -0.590454646178
   10          0.833547416900        -0.257699926440
   11          0.162455000000        -0.009416413149
   12          0.047769000000         0.002813916359
   13          0.021234841500        -0.001230403445
 P 13
    1       2205.350853400000         0.000073855643
    2        522.353006990000         0.000601787110
    3        167.730555420000         0.002844524817
    4         62.670045373000         0.008257368383
    5         25.109749456000         0.013391161780
    6         10.225142681000         0.007784843296
    7         40.713442521000         0.001627973943
    8          5.624709069600        -0.030128560864
    9          2.227994911600        -0.051816557354
   10          0.833547416900        -0.011831521737
   11          0.162455000000         0.226711063200
   12          0.047769000000        -0.052363222088
   13          0.021234841500         0.951503923872
 P 13
    1       2205.350853400000         0.000120791952
    2        522.353006990000         0.000984231352
    3        167.730555420000         0.004652260672
    4         62.670045373000         0.013505043076
    5         25.109749456000         0.021901434971
    6         10.225142681000         0.012732221596
    7         40.713442521000         0.002723953373
    8          5.624709069600        -0.050411614592
    9          2.227994911600        -0.086700334960
   10          0.833547416900        -0.000031522394
   11          0.162455000000         0.208472028458
   12          0.047769000000         1.471526239807
   13          0.021234841500        -1.409772046392
 P 13
    1       2205.350853400000         0.000213563777
    2        522.353006990000         0.001740150410
    3        167.730555420000         0.008225335740
    4         62.670045373000         0.023877319289
    5         25.109749456000         0.038722390794
    6         10.225142681000         0.022510947842
    7         40.713442521000         0.004674552689
    8          5.624709069600        -0.086510933285
    9          2.227994911600        -0.148785690644
   10          0.833547416900        -0.084333703426
   11          0.162455000000         1.496395220296
   12          0.047769000000        -1.952918100356
   13          0.021234841500         0.984943325153
 P 13
    1       2205.350853400000         0.000857079501
    2        522.353006990000         0.006983615239
    3        167.730555420000         0.033010123547
    4         62.670045373000         0.095825056222
    5         25.109749456000         0.155401669256
    6         10.225142681000         0.090341500086
    7         40.713442521000         0.025231241794
    8          5.624709069600        -0.466949122389
    9          2.227994911600        -0.803081703455
   10          0.833547416900         1.602036243131
   11          0.162455000000        -0.894789903148
   12          0.047769000000         0.612482220669
   13          0.021234841500        -0.284210079743
 D 7
    1         88.554315311000         0.012709698585
    2         25.721525557000         0.079279280665
    3          9.127836762400         0.244559641586
    4          3.431236406400         0.403319108133
    5          1.230892064500         0.386668745788
    6          0.390318451100         0.226399773290
    7          0.124000000000         0.035201927762
 D 7
    1         88.554315311000         0.002887849805
    2         25.721525557000         0.018013539323
    3          9.127836762400         0.055567919935
    4          3.431236406400         0.091640647507
    5          1.230892064500         0.046646170194
    6          0.390318451100         0.166374783625
    7          0.124000000000        -1.075232975902
 D 7
    1         88.554315311000         0.006913674330
    2         25.721525557000         0.043125422993
    3          9.127836762400         0.133032715509
    4          3.431236406400         0.219392847583
    5          1.230892064500         0.348681203977
    6          0.390318451100        -1.348011148604
    7          0.124000000000         0.651720774641
 D 7
    1         88.554315311000         0.018837498790
    2         25.721525557000         0.117502657016
    3          9.127836762400         0.362470590604
    4          3.431236406400         0.597773673444
    5          1.230892064500        -1.416461122744
    6          0.390318451100         0.815417536263
    7          0.124000000000        -0.270882941139
 F 2
    1          1.433000000000         0.982992307368
    2          5.694000000000         0.043771211154
 F 2
    1          1.433000000000        -0.438176886937
    2          5.694000000000         1.075340384095
 G 1
    1          3.617000000000         1.000000000000
 end
  // -----------------------------------------------
  // The basis set
  // -----------------------------------------------
  BAS[ATNO] = new BFNGauss[NSH];
  // Basis function   1 L = s
  InitBFNGauss(BAS[ATNO][  0]);
  BAS[ATNO][  0].l  = 0;
  BAS[ATNO][  0].ng = 17;
  BAS[ATNO][  0].a[  0] =    405924.310279999976;     BAS[ATNO][  0].d[  0] =         0.000236949350;
  BAS[ATNO][  0].a[  1] =     60846.955735000003;     BAS[ATNO][  0].d[  1] =         0.001837362769;
  BAS[ATNO][  0].a[  2] =     13847.343091999999;     BAS[ATNO][  0].d[  2] =         0.009556660705;
  BAS[ATNO][  0].a[  3] =      3919.615855100000;     BAS[ATNO][  0].d[  3] =         0.038872815853;
  BAS[ATNO][  0].a[  4] =      1276.359416700000;     BAS[ATNO][  0].d[  4] =         0.126750687516;
  BAS[ATNO][  0].a[  5] =       458.672544350000;     BAS[ATNO][  0].d[  5] =         0.301714296420;
  BAS[ATNO][  0].a[  6] =       178.287252460000;     BAS[ATNO][  0].d[  6] =         0.433813329745;
  BAS[ATNO][  0].a[  7] =        70.612192837000;     BAS[ATNO][  0].d[  7] =         0.230349811236;
  BAS[ATNO][  0].a[  8] =       443.880779500000;     BAS[ATNO][  0].d[  8] =        -0.000178942580;
  BAS[ATNO][  0].a[  9] =       137.558752670000;     BAS[ATNO][  0].d[  9] =        -0.000848123915;
  BAS[ATNO][  0].a[ 10] =        22.268083479000;     BAS[ATNO][  0].d[ 10] =         0.003973474583;
  BAS[ATNO][  0].a[ 11] =         9.521731060600;     BAS[ATNO][  0].d[ 11] =         0.003776952562;
  BAS[ATNO][  0].a[ 12] =        14.874114065000;     BAS[ATNO][  0].d[ 12] =         0.000957369881;
  BAS[ATNO][  0].a[ 13] =         2.464751761200;     BAS[ATNO][  0].d[ 13] =        -0.002970043763;
  BAS[ATNO][  0].a[ 14] =         1.011327223800;     BAS[ATNO][  0].d[ 14] =         0.001620705179;
  BAS[ATNO][  0].a[ 15] =         0.149198520900;     BAS[ATNO][  0].d[ 15] =        -0.000429204119;
  BAS[ATNO][  0].a[ 16] =         0.051441873000;     BAS[ATNO][  0].d[ 16] =         0.000193643213;

  // Basis function   2 L = s
  InitBFNGauss(BAS[ATNO][  1]);
  BAS[ATNO][  1].l  = 0;
  BAS[ATNO][  1].ng = 17;
  BAS[ATNO][  1].a[  0] =    405924.310279999976;     BAS[ATNO][  1].d[  0] =        -0.000076174774;
  BAS[ATNO][  1].a[  1] =     60846.955735000003;     BAS[ATNO][  1].d[  1] =        -0.000590677686;
  BAS[ATNO][  1].a[  2] =     13847.343091999999;     BAS[ATNO][  1].d[  2] =        -0.003072287264;
  BAS[ATNO][  1].a[  3] =      3919.615855100000;     BAS[ATNO][  1].d[  3] =        -0.012496881573;
  BAS[ATNO][  1].a[  4] =      1276.359416700000;     BAS[ATNO][  1].d[  4] =        -0.040747969923;
  BAS[ATNO][  1].a[  5] =       458.672544350000;     BAS[ATNO][  1].d[  5] =        -0.096995490255;
  BAS[ATNO][  1].a[  6] =       178.287252460000;     BAS[ATNO][  1].d[  6] =        -0.139462853094;
  BAS[ATNO][  1].a[  7] =        70.612192837000;     BAS[ATNO][  1].d[  7] =        -0.074053146093;
  BAS[ATNO][  1].a[  8] =       443.880779500000;     BAS[ATNO][  1].d[  8] =        -0.026103341966;
  BAS[ATNO][  1].a[  9] =       137.558752670000;     BAS[ATNO][  1].d[  9] =        -0.123720517564;
  BAS[ATNO][  1].a[ 10] =        22.268083479000;     BAS[ATNO][  1].d[ 10] =         0.579632673410;
  BAS[ATNO][  1].a[ 11] =         9.521731060600;     BAS[ATNO][  1].d[ 11] =         0.550964921203;
  BAS[ATNO][  1].a[ 12] =        14.874114065000;     BAS[ATNO][  1].d[ 12] =        -0.014823112747;
  BAS[ATNO][  1].a[ 13] =         2.464751761200;     BAS[ATNO][  1].d[ 13] =         0.045985668053;
  BAS[ATNO][  1].a[ 14] =         1.011327223800;     BAS[ATNO][  1].d[ 14] =        -0.012594002537;
  BAS[ATNO][  1].a[ 15] =         0.149198520900;     BAS[ATNO][  1].d[ 15] =         0.002652018520;
  BAS[ATNO][  1].a[ 16] =         0.051441873000;     BAS[ATNO][  1].d[ 16] =        -0.001171438968;

  // Basis function   3 L = s
  InitBFNGauss(BAS[ATNO][  2]);
  BAS[ATNO][  2].l  = 0;
  BAS[ATNO][  2].ng = 17;
  BAS[ATNO][  2].a[  0] =    405924.310279999976;     BAS[ATNO][  2].d[  0] =         0.000028769898;
  BAS[ATNO][  2].a[  1] =     60846.955735000003;     BAS[ATNO][  2].d[  1] =         0.000223088774;
  BAS[ATNO][  2].a[  2] =     13847.343091999999;     BAS[ATNO][  2].d[  2] =         0.001160349911;
  BAS[ATNO][  2].a[  3] =      3919.615855100000;     BAS[ATNO][  2].d[  3] =         0.004719856631;
  BAS[ATNO][  2].a[  4] =      1276.359416700000;     BAS[ATNO][  2].d[  4] =         0.015389805442;
  BAS[ATNO][  2].a[  5] =       458.672544350000;     BAS[ATNO][  2].d[  5] =         0.036633523748;
  BAS[ATNO][  2].a[  6] =       178.287252460000;     BAS[ATNO][  2].d[  6] =         0.052672714239;
  BAS[ATNO][  2].a[  7] =        70.612192837000;     BAS[ATNO][  2].d[  7] =         0.027968596054;
  BAS[ATNO][  2].a[  8] =       443.880779500000;     BAS[ATNO][  2].d[  8] =         0.011793075352;
  BAS[ATNO][  2].a[  9] =       137.558752670000;     BAS[ATNO][  2].d[  9] =         0.055894965023;
  BAS[ATNO][  2].a[ 10] =        22.268083479000;     BAS[ATNO][  2].d[ 10] =        -0.261868836671;
  BAS[ATNO][  2].a[ 11] =         9.521731060600;     BAS[ATNO][  2].d[ 11] =        -0.248917201497;
  BAS[ATNO][  2].a[ 12] =        14.874114065000;     BAS[ATNO][  2].d[ 12] =        -0.242337748413;
  BAS[ATNO][  2].a[ 13] =         2.464751761200;     BAS[ATNO][  2].d[ 13] =         0.751803176944;
  BAS[ATNO][  2].a[ 14] =         1.011327223800;     BAS[ATNO][  2].d[ 14] =         0.469720652568;
  BAS[ATNO][  2].a[ 15] =         0.149198520900;     BAS[ATNO][  2].d[ 15] =         0.015174757610;
  BAS[ATNO][  2].a[ 16] =         0.051441873000;     BAS[ATNO][  2].d[ 16] =        -0.005138490684;

  // Basis function   4 L = s
  InitBFNGauss(BAS[ATNO][  3]);
  BAS[ATNO][  3].l  = 0;
  BAS[ATNO][  3].ng = 17;
  BAS[ATNO][  3].a[  0] =    405924.310279999976;     BAS[ATNO][  3].d[  0] =        -0.000006747861;
  BAS[ATNO][  3].a[  1] =     60846.955735000003;     BAS[ATNO][  3].d[  1] =        -0.000052324551;
  BAS[ATNO][  3].a[  2] =     13847.343091999999;     BAS[ATNO][  3].d[  2] =        -0.000272155280;
  BAS[ATNO][  3].a[  3] =      3919.615855100000;     BAS[ATNO][  3].d[  3] =        -0.001107022881;
  BAS[ATNO][  3].a[  4] =      1276.359416700000;     BAS[ATNO][  3].d[  4] =        -0.003609615311;
  BAS[ATNO][  3].a[  5] =       458.672544350000;     BAS[ATNO][  3].d[  5] =        -0.008592241709;
  BAS[ATNO][  3].a[  6] =       178.287252460000;     BAS[ATNO][  3].d[  6] =        -0.012354167601;
  BAS[ATNO][  3].a[  7] =        70.612192837000;     BAS[ATNO][  3].d[  7] =        -0.006559918702;
  BAS[ATNO][  3].a[  8] =       443.880779500000;     BAS[ATNO][  3].d[  8] =        -0.002288539538;
  BAS[ATNO][  3].a[  9] =       137.558752670000;     BAS[ATNO][  3].d[  9] =        -0.010846860009;
  BAS[ATNO][  3].a[ 10] =        22.268083479000;     BAS[ATNO][  3].d[ 10] =         0.050817718751;
  BAS[ATNO][  3].a[ 11] =         9.521731060600;     BAS[ATNO][  3].d[ 11] =         0.048304351517;
  BAS[ATNO][  3].a[ 12] =        14.874114065000;     BAS[ATNO][  3].d[ 12] =         0.080342036748;
  BAS[ATNO][  3].a[ 13] =         2.464751761200;     BAS[ATNO][  3].d[ 13] =        -0.249244696151;
  BAS[ATNO][  3].a[ 14] =         1.011327223800;     BAS[ATNO][  3].d[ 14] =        -0.244745287816;
  BAS[ATNO][  3].a[ 15] =         0.149198520900;     BAS[ATNO][  3].d[ 15] =         0.701114409408;
  BAS[ATNO][  3].a[ 16] =         0.051441873000;     BAS[ATNO][  3].d[ 16] =         0.440081209931;

  // Basis function   5 L = s
  InitBFNGauss(BAS[ATNO][  4]);
  BAS[ATNO][  4].l  = 0;
  BAS[ATNO][  4].ng = 17;
  BAS[ATNO][  4].a[  0] =    405924.310279999976;     BAS[ATNO][  4].d[  0] =        -0.000005380070;
  BAS[ATNO][  4].a[  1] =     60846.955735000003;     BAS[ATNO][  4].d[  1] =        -0.000041718365;
  BAS[ATNO][  4].a[  2] =     13847.343091999999;     BAS[ATNO][  4].d[  2] =        -0.000216989409;
  BAS[ATNO][  4].a[  3] =      3919.615855100000;     BAS[ATNO][  4].d[  3] =        -0.000882629360;
  BAS[ATNO][  4].a[  4] =      1276.359416700000;     BAS[ATNO][  4].d[  4] =        -0.002877946341;
  BAS[ATNO][  4].a[  5] =       458.672544350000;     BAS[ATNO][  4].d[  5] =        -0.006850594443;
  BAS[ATNO][  4].a[  6] =       178.287252460000;     BAS[ATNO][  4].d[  6] =        -0.009849978013;
  BAS[ATNO][  4].a[  7] =        70.612192837000;     BAS[ATNO][  4].d[  7] =        -0.005230223279;
  BAS[ATNO][  4].a[  8] =       443.880779500000;     BAS[ATNO][  4].d[  8] =        -0.002177503282;
  BAS[ATNO][  4].a[  9] =       137.558752670000;     BAS[ATNO][  4].d[  9] =        -0.010320587816;
  BAS[ATNO][  4].a[ 10] =        22.268083479000;     BAS[ATNO][  4].d[ 10] =         0.048352124811;
  BAS[ATNO][  4].a[ 11] =         9.521731060600;     BAS[ATNO][  4].d[ 11] =         0.045960702111;
  BAS[ATNO][  4].a[ 12] =        14.874114065000;     BAS[ATNO][  4].d[ 12] =         0.055533052773;
  BAS[ATNO][  4].a[ 13] =         2.464751761200;     BAS[ATNO][  4].d[ 13] =        -0.172279910057;
  BAS[ATNO][  4].a[ 14] =         1.011327223800;     BAS[ATNO][  4].d[ 14] =        -0.353029153109;
  BAS[ATNO][  4].a[ 15] =         0.149198520900;     BAS[ATNO][  4].d[ 15] =         1.902058540428;
  BAS[ATNO][  4].a[ 16] =         0.051441873000;     BAS[ATNO][  4].d[ 16] =        -1.771356486888;

  // Basis function   6 L = s
  InitBFNGauss(BAS[ATNO][  5]);
  BAS[ATNO][  5].l  = 0;
  BAS[ATNO][  5].ng = 17;
  BAS[ATNO][  5].a[  0] =    405924.310279999976;     BAS[ATNO][  5].d[  0] =        -0.000039448146;
  BAS[ATNO][  5].a[  1] =     60846.955735000003;     BAS[ATNO][  5].d[  1] =        -0.000305890495;
  BAS[ATNO][  5].a[  2] =     13847.343091999999;     BAS[ATNO][  5].d[  2] =        -0.001591025858;
  BAS[ATNO][  5].a[  3] =      3919.615855100000;     BAS[ATNO][  5].d[  3] =        -0.006471680550;
  BAS[ATNO][  5].a[  4] =      1276.359416700000;     BAS[ATNO][  5].d[  4] =        -0.021101891930;
  BAS[ATNO][  5].a[  5] =       458.672544350000;     BAS[ATNO][  5].d[  5] =        -0.050230437417;
  BAS[ATNO][  5].a[  6] =       178.287252460000;     BAS[ATNO][  5].d[  6] =        -0.072222740417;
  BAS[ATNO][  5].a[  7] =        70.612192837000;     BAS[ATNO][  5].d[  7] =        -0.038349431613;
  BAS[ATNO][  5].a[  8] =       443.880779500000;     BAS[ATNO][  5].d[  8] =         0.001769524314;
  BAS[ATNO][  5].a[  9] =       137.558752670000;     BAS[ATNO][  5].d[  9] =         0.008386913224;
  BAS[ATNO][  5].a[ 10] =        22.268083479000;     BAS[ATNO][  5].d[ 10] =        -0.039292827327;
  BAS[ATNO][  5].a[ 11] =         9.521731060600;     BAS[ATNO][  5].d[ 11] =        -0.037349463730;
  BAS[ATNO][  5].a[ 12] =        14.874114065000;     BAS[ATNO][  5].d[ 12] =         0.881607877297;
  BAS[ATNO][  5].a[ 13] =         2.464751761200;     BAS[ATNO][  5].d[ 13] =        -2.735007679623;
  BAS[ATNO][  5].a[ 14] =         1.011327223800;     BAS[ATNO][  5].d[ 14] =         2.813018564377;
  BAS[ATNO][  5].a[ 15] =         0.149198520900;     BAS[ATNO][  5].d[ 15] =        -1.137374801760;
  BAS[ATNO][  5].a[ 16] =         0.051441873000;     BAS[ATNO][  5].d[ 16] =         0.517906806028;

  // Basis function   7 L = p
  InitBFNGauss(BAS[ATNO][  6]);
  BAS[ATNO][  6].l  = 1;
  BAS[ATNO][  6].ng = 13;
  BAS[ATNO][  6].a[  0] =      2205.350853400000;     BAS[ATNO][  6].d[  0] =         0.002617890892;
  BAS[ATNO][  6].a[  1] =       522.353006990000;     BAS[ATNO][  6].d[  1] =         0.021330976531;
  BAS[ATNO][  6].a[  2] =       167.730555420000;     BAS[ATNO][  6].d[  2] =         0.100827171400;
  BAS[ATNO][  6].a[  3] =        62.670045373000;     BAS[ATNO][  6].d[  3] =         0.292691099879;
  BAS[ATNO][  6].a[  4] =        25.109749456000;     BAS[ATNO][  6].d[  4] =         0.474663801838;
  BAS[ATNO][  6].a[  5] =        10.225142681000;     BAS[ATNO][  6].d[  5] =         0.275941951588;
  BAS[ATNO][  6].a[  6] =        40.713442521000;     BAS[ATNO][  6].d[  6] =        -0.000525404309;
  BAS[ATNO][  6].a[  7] =         5.624709069600;     BAS[ATNO][  6].d[  7] =         0.009723543650;
  BAS[ATNO][  6].a[  8] =         2.227994911600;     BAS[ATNO][  6].d[  8] =         0.016723021040;
  BAS[ATNO][  6].a[  9] =         0.833547416900;     BAS[ATNO][  6].d[  9] =        -0.005614007751;
  BAS[ATNO][  6].a[ 10] =         0.162455000000;     BAS[ATNO][  6].d[ 10] =         0.001718851709;
  BAS[ATNO][  6].a[ 11] =         0.047769000000;     BAS[ATNO][  6].d[ 11] =        -0.001143075454;
  BAS[ATNO][  6].a[ 12] =         0.021234841500;     BAS[ATNO][  6].d[ 12] =         0.000537542475;

  // Basis function   8 L = p
  InitBFNGauss(BAS[ATNO][  7]);
  BAS[ATNO][  7].l  = 1;
  BAS[ATNO][  7].ng = 13;
  BAS[ATNO][  7].a[  0] =      2205.350853400000;     BAS[ATNO][  7].d[  0] =        -0.001023257103;
  BAS[ATNO][  7].a[  1] =       522.353006990000;     BAS[ATNO][  7].d[  1] =        -0.008337655827;
  BAS[ATNO][  7].a[  2] =       167.730555420000;     BAS[ATNO][  7].d[  2] =        -0.039410396983;
  BAS[ATNO][  7].a[  3] =        62.670045373000;     BAS[ATNO][  7].d[  3] =        -0.114404403886;
  BAS[ATNO][  7].a[  4] =        25.109749456000;     BAS[ATNO][  7].d[  4] =        -0.185532219183;
  BAS[ATNO][  7].a[  5] =        10.225142681000;     BAS[ATNO][  7].d[  5] =        -0.107857650922;
  BAS[ATNO][  7].a[  6] =        40.713442521000;     BAS[ATNO][  7].d[  6] =        -0.018550919392;
  BAS[ATNO][  7].a[  7] =         5.624709069600;     BAS[ATNO][  7].d[  7] =         0.343317843823;
  BAS[ATNO][  7].a[  8] =         2.227994911600;     BAS[ATNO][  7].d[  8] =         0.590454646178;
  BAS[ATNO][  7].a[  9] =         0.833547416900;     BAS[ATNO][  7].d[  9] =         0.257699926440;
  BAS[ATNO][  7].a[ 10] =         0.162455000000;     BAS[ATNO][  7].d[ 10] =         0.009416413149;
  BAS[ATNO][  7].a[ 11] =         0.047769000000;     BAS[ATNO][  7].d[ 11] =        -0.002813916359;
  BAS[ATNO][  7].a[ 12] =         0.021234841500;     BAS[ATNO][  7].d[ 12] =         0.001230403445;

  // Basis function   9 L = p
  InitBFNGauss(BAS[ATNO][  8]);
  BAS[ATNO][  8].l  = 1;
  BAS[ATNO][  8].ng = 13;
  BAS[ATNO][  8].a[  0] =      2205.350853400000;     BAS[ATNO][  8].d[  0] =         0.000073855643;
  BAS[ATNO][  8].a[  1] =       522.353006990000;     BAS[ATNO][  8].d[  1] =         0.000601787110;
  BAS[ATNO][  8].a[  2] =       167.730555420000;     BAS[ATNO][  8].d[  2] =         0.002844524817;
  BAS[ATNO][  8].a[  3] =        62.670045373000;     BAS[ATNO][  8].d[  3] =         0.008257368383;
  BAS[ATNO][  8].a[  4] =        25.109749456000;     BAS[ATNO][  8].d[  4] =         0.013391161780;
  BAS[ATNO][  8].a[  5] =        10.225142681000;     BAS[ATNO][  8].d[  5] =         0.007784843296;
  BAS[ATNO][  8].a[  6] =        40.713442521000;     BAS[ATNO][  8].d[  6] =         0.001627973943;
  BAS[ATNO][  8].a[  7] =         5.624709069600;     BAS[ATNO][  8].d[  7] =        -0.030128560864;
  BAS[ATNO][  8].a[  8] =         2.227994911600;     BAS[ATNO][  8].d[  8] =        -0.051816557354;
  BAS[ATNO][  8].a[  9] =         0.833547416900;     BAS[ATNO][  8].d[  9] =        -0.011831521737;
  BAS[ATNO][  8].a[ 10] =         0.162455000000;     BAS[ATNO][  8].d[ 10] =         0.226711063200;
  BAS[ATNO][  8].a[ 11] =         0.047769000000;     BAS[ATNO][  8].d[ 11] =        -0.052363222088;
  BAS[ATNO][  8].a[ 12] =         0.021234841500;     BAS[ATNO][  8].d[ 12] =         0.951503923872;

  // Basis function  10 L = p
  InitBFNGauss(BAS[ATNO][  9]);
  BAS[ATNO][  9].l  = 1;
  BAS[ATNO][  9].ng = 13;
  BAS[ATNO][  9].a[  0] =      2205.350853400000;     BAS[ATNO][  9].d[  0] =         0.000120791952;
  BAS[ATNO][  9].a[  1] =       522.353006990000;     BAS[ATNO][  9].d[  1] =         0.000984231352;
  BAS[ATNO][  9].a[  2] =       167.730555420000;     BAS[ATNO][  9].d[  2] =         0.004652260672;
  BAS[ATNO][  9].a[  3] =        62.670045373000;     BAS[ATNO][  9].d[  3] =         0.013505043076;
  BAS[ATNO][  9].a[  4] =        25.109749456000;     BAS[ATNO][  9].d[  4] =         0.021901434971;
  BAS[ATNO][  9].a[  5] =        10.225142681000;     BAS[ATNO][  9].d[  5] =         0.012732221596;
  BAS[ATNO][  9].a[  6] =        40.713442521000;     BAS[ATNO][  9].d[  6] =         0.002723953373;
  BAS[ATNO][  9].a[  7] =         5.624709069600;     BAS[ATNO][  9].d[  7] =        -0.050411614592;
  BAS[ATNO][  9].a[  8] =         2.227994911600;     BAS[ATNO][  9].d[  8] =        -0.086700334960;
  BAS[ATNO][  9].a[  9] =         0.833547416900;     BAS[ATNO][  9].d[  9] =        -0.000031522394;
  BAS[ATNO][  9].a[ 10] =         0.162455000000;     BAS[ATNO][  9].d[ 10] =         0.208472028458;
  BAS[ATNO][  9].a[ 11] =         0.047769000000;     BAS[ATNO][  9].d[ 11] =         1.471526239807;
  BAS[ATNO][  9].a[ 12] =         0.021234841500;     BAS[ATNO][  9].d[ 12] =        -1.409772046392;

  // Basis function  11 L = p
  InitBFNGauss(BAS[ATNO][ 10]);
  BAS[ATNO][ 10].l  = 1;
  BAS[ATNO][ 10].ng = 13;
  BAS[ATNO][ 10].a[  0] =      2205.350853400000;     BAS[ATNO][ 10].d[  0] =        -0.000213563777;
  BAS[ATNO][ 10].a[  1] =       522.353006990000;     BAS[ATNO][ 10].d[  1] =        -0.001740150410;
  BAS[ATNO][ 10].a[  2] =       167.730555420000;     BAS[ATNO][ 10].d[  2] =        -0.008225335740;
  BAS[ATNO][ 10].a[  3] =        62.670045373000;     BAS[ATNO][ 10].d[  3] =        -0.023877319289;
  BAS[ATNO][ 10].a[  4] =        25.109749456000;     BAS[ATNO][ 10].d[  4] =        -0.038722390794;
  BAS[ATNO][ 10].a[  5] =        10.225142681000;     BAS[ATNO][ 10].d[  5] =        -0.022510947842;
  BAS[ATNO][ 10].a[  6] =        40.713442521000;     BAS[ATNO][ 10].d[  6] =        -0.004674552689;
  BAS[ATNO][ 10].a[  7] =         5.624709069600;     BAS[ATNO][ 10].d[  7] =         0.086510933285;
  BAS[ATNO][ 10].a[  8] =         2.227994911600;     BAS[ATNO][ 10].d[  8] =         0.148785690644;
  BAS[ATNO][ 10].a[  9] =         0.833547416900;     BAS[ATNO][ 10].d[  9] =         0.084333703426;
  BAS[ATNO][ 10].a[ 10] =         0.162455000000;     BAS[ATNO][ 10].d[ 10] =        -1.496395220296;
  BAS[ATNO][ 10].a[ 11] =         0.047769000000;     BAS[ATNO][ 10].d[ 11] =         1.952918100356;
  BAS[ATNO][ 10].a[ 12] =         0.021234841500;     BAS[ATNO][ 10].d[ 12] =        -0.984943325153;

  // Basis function  12 L = p
  InitBFNGauss(BAS[ATNO][ 11]);
  BAS[ATNO][ 11].l  = 1;
  BAS[ATNO][ 11].ng = 13;
  BAS[ATNO][ 11].a[  0] =      2205.350853400000;     BAS[ATNO][ 11].d[  0] =         0.000857079501;
  BAS[ATNO][ 11].a[  1] =       522.353006990000;     BAS[ATNO][ 11].d[  1] =         0.006983615239;
  BAS[ATNO][ 11].a[  2] =       167.730555420000;     BAS[ATNO][ 11].d[  2] =         0.033010123547;
  BAS[ATNO][ 11].a[  3] =        62.670045373000;     BAS[ATNO][ 11].d[  3] =         0.095825056222;
  BAS[ATNO][ 11].a[  4] =        25.109749456000;     BAS[ATNO][ 11].d[  4] =         0.155401669256;
  BAS[ATNO][ 11].a[  5] =        10.225142681000;     BAS[ATNO][ 11].d[  5] =         0.090341500086;
  BAS[ATNO][ 11].a[  6] =        40.713442521000;     BAS[ATNO][ 11].d[  6] =         0.025231241794;
  BAS[ATNO][ 11].a[  7] =         5.624709069600;     BAS[ATNO][ 11].d[  7] =        -0.466949122389;
  BAS[ATNO][ 11].a[  8] =         2.227994911600;     BAS[ATNO][ 11].d[  8] =        -0.803081703455;
  BAS[ATNO][ 11].a[  9] =         0.833547416900;     BAS[ATNO][ 11].d[  9] =         1.602036243131;
  BAS[ATNO][ 11].a[ 10] =         0.162455000000;     BAS[ATNO][ 11].d[ 10] =        -0.894789903148;
  BAS[ATNO][ 11].a[ 11] =         0.047769000000;     BAS[ATNO][ 11].d[ 11] =         0.612482220669;
  BAS[ATNO][ 11].a[ 12] =         0.021234841500;     BAS[ATNO][ 11].d[ 12] =        -0.284210079743;

  // Basis function  13 L = d
  InitBFNGauss(BAS[ATNO][ 12]);
  BAS[ATNO][ 12].l  = 2;
  BAS[ATNO][ 12].ng = 7;
  BAS[ATNO][ 12].a[  0] =        88.554315311000;     BAS[ATNO][ 12].d[  0] =         0.012709698585;
  BAS[ATNO][ 12].a[  1] =        25.721525557000;     BAS[ATNO][ 12].d[  1] =         0.079279280665;
  BAS[ATNO][ 12].a[  2] =         9.127836762400;     BAS[ATNO][ 12].d[  2] =         0.244559641586;
  BAS[ATNO][ 12].a[  3] =         3.431236406400;     BAS[ATNO][ 12].d[  3] =         0.403319108133;
  BAS[ATNO][ 12].a[  4] =         1.230892064500;     BAS[ATNO][ 12].d[  4] =         0.386668745788;
  BAS[ATNO][ 12].a[  5] =         0.390318451100;     BAS[ATNO][ 12].d[  5] =         0.226399773290;
  BAS[ATNO][ 12].a[  6] =         0.124000000000;     BAS[ATNO][ 12].d[  6] =         0.035201927762;

  // Basis function  14 L = d
  InitBFNGauss(BAS[ATNO][ 13]);
  BAS[ATNO][ 13].l  = 2;
  BAS[ATNO][ 13].ng = 7;
  BAS[ATNO][ 13].a[  0] =        88.554315311000;     BAS[ATNO][ 13].d[  0] =        -0.002887849805;
  BAS[ATNO][ 13].a[  1] =        25.721525557000;     BAS[ATNO][ 13].d[  1] =        -0.018013539323;
  BAS[ATNO][ 13].a[  2] =         9.127836762400;     BAS[ATNO][ 13].d[  2] =        -0.055567919935;
  BAS[ATNO][ 13].a[  3] =         3.431236406400;     BAS[ATNO][ 13].d[  3] =        -0.091640647507;
  BAS[ATNO][ 13].a[  4] =         1.230892064500;     BAS[ATNO][ 13].d[  4] =        -0.046646170194;
  BAS[ATNO][ 13].a[  5] =         0.390318451100;     BAS[ATNO][ 13].d[  5] =        -0.166374783625;
  BAS[ATNO][ 13].a[  6] =         0.124000000000;     BAS[ATNO][ 13].d[  6] =         1.075232975902;

  // Basis function  15 L = d
  InitBFNGauss(BAS[ATNO][ 14]);
  BAS[ATNO][ 14].l  = 2;
  BAS[ATNO][ 14].ng = 7;
  BAS[ATNO][ 14].a[  0] =        88.554315311000;     BAS[ATNO][ 14].d[  0] =        -0.006913674330;
  BAS[ATNO][ 14].a[  1] =        25.721525557000;     BAS[ATNO][ 14].d[  1] =        -0.043125422993;
  BAS[ATNO][ 14].a[  2] =         9.127836762400;     BAS[ATNO][ 14].d[  2] =        -0.133032715509;
  BAS[ATNO][ 14].a[  3] =         3.431236406400;     BAS[ATNO][ 14].d[  3] =        -0.219392847583;
  BAS[ATNO][ 14].a[  4] =         1.230892064500;     BAS[ATNO][ 14].d[  4] =        -0.348681203977;
  BAS[ATNO][ 14].a[  5] =         0.390318451100;     BAS[ATNO][ 14].d[  5] =         1.348011148604;
  BAS[ATNO][ 14].a[  6] =         0.124000000000;     BAS[ATNO][ 14].d[  6] =        -0.651720774641;

  // Basis function  16 L = d
  InitBFNGauss(BAS[ATNO][ 15]);
  BAS[ATNO][ 15].l  = 2;
  BAS[ATNO][ 15].ng = 7;
  BAS[ATNO][ 15].a[  0] =        88.554315311000;     BAS[ATNO][ 15].d[  0] =        -0.018837498790;
  BAS[ATNO][ 15].a[  1] =        25.721525557000;     BAS[ATNO][ 15].d[  1] =        -0.117502657016;
  BAS[ATNO][ 15].a[  2] =         9.127836762400;     BAS[ATNO][ 15].d[  2] =        -0.362470590604;
  BAS[ATNO][ 15].a[  3] =         3.431236406400;     BAS[ATNO][ 15].d[  3] =        -0.597773673444;
  BAS[ATNO][ 15].a[  4] =         1.230892064500;     BAS[ATNO][ 15].d[  4] =         1.416461122744;
  BAS[ATNO][ 15].a[  5] =         0.390318451100;     BAS[ATNO][ 15].d[  5] =        -0.815417536263;
  BAS[ATNO][ 15].a[  6] =         0.124000000000;     BAS[ATNO][ 15].d[  6] =         0.270882941139;

  // Basis function  17 L = f
  InitBFNGauss(BAS[ATNO][ 16]);
  BAS[ATNO][ 16].l  = 3;
  BAS[ATNO][ 16].ng = 2;
  BAS[ATNO][ 16].a[  0] =         1.433000000000;     BAS[ATNO][ 16].d[  0] =         0.982992307368;
  BAS[ATNO][ 16].a[  1] =         5.694000000000;     BAS[ATNO][ 16].d[  1] =         0.043771211154;

  // Basis function  18 L = f
  InitBFNGauss(BAS[ATNO][ 17]);
  BAS[ATNO][ 17].l  = 3;
  BAS[ATNO][ 17].ng = 2;
  BAS[ATNO][ 17].a[  0] =         1.433000000000;     BAS[ATNO][ 17].d[  0] =        -0.438176886937;
  BAS[ATNO][ 17].a[  1] =         5.694000000000;     BAS[ATNO][ 17].d[  1] =         1.075340384095;

  // Basis function  19 L = g
  InitBFNGauss(BAS[ATNO][ 18]);
  BAS[ATNO][ 18].l  = 4;
  BAS[ATNO][ 18].ng = 1;
  BAS[ATNO][ 18].a[  0] =         3.617000000000;     BAS[ATNO][ 18].d[  0] =         1.000000000000;

-------
TIMINGS
-------

Total SCF time: 0 days 0 hours 0 min 1 sec 

Total time                  ....       1.918 sec
Sum of individual times     ....       1.732 sec  ( 90.3%)

Fock matrix formation       ....       1.504 sec  ( 78.4%)
  XC integration            ....       0.078 sec  (  5.2% of F)
    Basis function eval.    ....       0.006 sec  (  7.6% of XC)
    Density eval.           ....       0.007 sec  (  8.6% of XC)
    XC-Functional eval.     ....       0.006 sec  (  7.8% of XC)
    XC-Potential eval.      ....       0.011 sec  ( 14.2% of XC)
Diagonalization             ....       0.007 sec  (  0.3%)
Density matrix formation    ....       0.002 sec  (  0.1%)
Population analysis         ....       0.002 sec  (  0.1%)
Initial guess               ....       0.081 sec  (  4.2%)
Orbital Transformation      ....       0.000 sec  (  0.0%)
Orbital Orthonormalization  ....       0.000 sec  (  0.0%)
DIIS solution               ....       0.004 sec  (  0.2%)
Grid generation             ....       0.132 sec  (  6.9%)

-------------------------   --------------------
FINAL SINGLE POINT ENERGY     -1779.297356569184
-------------------------   --------------------


                            ***************************************
                            *     ORCA property calculations      *
                            ***************************************

                                    ---------------------
                                    Active property flags
                                    ---------------------
   (+) Dipole Moment


------------------------------------------------------------------------------
                       ORCA ELECTRIC PROPERTIES CALCULATION
------------------------------------------------------------------------------

Dipole Moment Calculation                       ... on
Quadrupole Moment Calculation                   ... off
Polarizability Calculation                      ... off
GBWName                                         ... TMD14_Zn.gbw
Electron density file                           ... TMD14_Zn.scfp
The origin for moment calculation is the CENTER OF MASS  = ( 0.000000,  0.000000  0.000000)

-------------
DIPOLE MOMENT
-------------
                                X             Y             Z
Electronic contribution:     -0.00000      -0.00000       0.00000
Nuclear contribution   :      0.00000       0.00000       0.00000
                        -----------------------------------------
Total Dipole Moment    :     -0.00000      -0.00000       0.00000
                        -----------------------------------------
Magnitude (a.u.)       :      0.00000
Magnitude (Debye)      :      0.00000



--------------------
Rotational spectrum 
--------------------
 
Rotational constants in cm-1:     0.000000     0.000000     0.000000 
Rotational constants in MHz :     0.000000     0.000000     0.000000 

 Dipole components along the rotational axes: 
x,y,z [a.u.] :    -0.000000    -0.000000     0.000000 
x,y,z [Debye]:    -0.000000    -0.000000     0.000000 

 

Timings for individual modules:

Sum of individual times         ...        3.080 sec (=   0.051 min)
GTO integral calculation        ...        0.784 sec (=   0.013 min)  25.5 %
SCF iterations                  ...        2.296 sec (=   0.038 min)  74.5 %
                             ****ORCA TERMINATED NORMALLY****
TOTAL RUN TIME: 0 days 0 hours 0 minutes 3 seconds 523 msec
