
                                 *****************
                                 * O   R   C   A *
                                 *****************

           --- An Ab Initio, DFT and Semiempirical electronic structure package ---

                  #######################################################
                  #                        -***-                        #
                  #          Department of theory and spectroscopy      #
                  #               Directorship: Frank Neese             #
                  #        Max Planck Institute fuer Kohlenforschung    #
                  #                Kaiser Wilhelm Platz 1               #
                  #                 D-45470 Muelheim/Ruhr               #
                  #                      Germany                        #
                  #                                                     #
                  #                  All rights reserved                #
                  #                        -***-                        #
                  #######################################################


                         Program Version 4.2.0 -  RELEASE  -


 With contributions from (in alphabetic order):
   Daniel Aravena         : Magnetic Suceptibility
   Michael Atanasov       : Ab Initio Ligand Field Theory (pilot matlab implementation)
   Alexander A. Auer      : GIAO ZORA, VPT2
   Ute Becker             : Parallelization
   Giovanni Bistoni       : ED, misc. LED, open-shell LED, HFLED
   Martin Brehm           : Molecular dynamics
   Dmytro Bykov           : SCF Hessian
   Vijay G. Chilkuri      : MRCI spin determinant printing, contributions to CSF-ICE
   Dipayan Datta          : RHF DLPNO-CCSD density
   Achintya Kumar Dutta   : EOM-CC, STEOM-CC
   Dmitry Ganyushin       : Spin-Orbit,Spin-Spin,Magnetic field MRCI
   Miquel Garcia          : C-PCM Hessian, Gaussian charge scheme
   Yang Guo               : DLPNO-NEVPT2, CIM, IAO-localization
   Andreas Hansen         : Spin unrestricted coupled pair/coupled cluster methods
   Benjamin Helmich-Paris : CASSCF linear response (MC-RPA)
   Lee Huntington         : MR-EOM, pCC
   Robert Izsak           : Overlap fitted RIJCOSX, COSX-SCS-MP3, EOM
   Christian Kollmar      : KDIIS, OOCD, Brueckner-CCSD(T), CCSD density
   Simone Kossmann        : Meta GGA functionals, TD-DFT gradient, OOMP2, MP2 Hessian
   Martin Krupicka        : AUTO-CI
   Lucas Lang             : DCDCAS
   Dagmar Lenk            : GEPOL surface, SMD
   Dimitrios Liakos       : Extrapolation schemes; Compound Job, initial MDCI parallelization
   Dimitrios Manganas     : Further ROCIS development; embedding schemes
   Dimitrios Pantazis     : SARC Basis sets
   Taras Petrenko         : DFT Hessian,TD-DFT gradient, ASA, ECA, R-Raman, ABS, FL, XAS/XES, NRVS
   Peter Pinski           : DLPNO-MP2, DLPNO-MP2 Gradient
   Christoph Reimann      : Effective Core Potentials
   Marius Retegan         : Local ZFS, SOC
   Christoph Riplinger    : Optimizer, TS searches, QM/MM, DLPNO-CCSD(T), (RO)-DLPNO pert. Triples
   Tobias Risthaus        : Range-separated hybrids, TD-DFT gradient, RPA, STAB
   Michael Roemelt        : Original ROCIS implementation
   Masaaki Saitow         : Open-shell DLPNO-CCSD energy and density
   Barbara Sandhoefer     : DKH picture change effects
   Avijit Sen             : IP-ROCIS
   Kantharuban Sivalingam : CASSCF convergence, NEVPT2, FIC-MRCI
   Bernardo de Souza      : ESD, SOC TD-DFT
   Georgi Stoychev        : AutoAux, RI-MP2 NMR
   Willem Van den Heuvel  : Paramagnetic NMR
   Boris Wezisla          : Elementary symmetry handling
   Frank Wennmohs         : Technical directorship


 We gratefully acknowledge several colleagues who have allowed us to
 interface, adapt or use parts of their codes:
   Stefan Grimme, W. Hujo, H. Kruse,             : VdW corrections, initial TS optimization,
                  C. Bannwarth                     DFT functionals, gCP, sTDA/sTD-DF
   Ed Valeev, F. Pavosevic, A. Kumar             : LibInt (2-el integral package), F12 methods
   Garnet Chan, S. Sharma, J. Yang, R. Olivares  : DMRG
   Ulf Ekstrom                                   : XCFun DFT Library
   Mihaly Kallay                                 : mrcc  (arbitrary order and MRCC methods)
   Andreas Klamt, Michael Diedenhofen            : otool_cosmo (COSMO solvation model)
   Jiri Pittner, Ondrej Demel                    : Mk-CCSD
   Frank Weinhold                                : gennbo (NPA and NBO analysis)
   Christopher J. Cramer and Donald G. Truhlar   : smd solvation model
   Lars Goerigk                                  : TD-DFT with DH, B97 family of functionals
   V. Asgeirsson, H. Jonsson                     : NEB implementation
   FAccTs GmbH                                   : IRC, NEB, NEB-TS, Multilevel, MM, QM/MM, CI optimization
   S Lehtola, MJT Oliveira, MAL Marques          : LibXC Library


 Your calculation uses the libint2 library for the computation of 2-el integrals
 For citations please refer to: http://libint.valeyev.net

 Your ORCA version has been built with support for libXC version: 4.2.3
 For citations please refer to: https://tddft.org/programs/libxc/

 This ORCA versions uses:
   CBLAS   interface :  Fast vector & matrix operations
   LAPACKE interface :  Fast linear algebra routines
   SCALAPACK package :  Parallel linear algebra routines


Your calculation utilizes the DFT-NL dispersion correction.
Cite in your paper:
Vydrov, O. A.; Van Voorhis, T. J. Chem. Phys. 2010, 133, 244103
Hujo, W.; Grimme, S. J. Chem. Theory Comput. 2011, 7, 3866 
   

----- Orbital basis set information -----
Your calculation utilizes the basis: def2-TZVPPD
   F. Weigend and R. Ahlrichs, Phys. Chem. Chem. Phys. 7, 3297 (2005).
   D. Rappoport and F. Furche, J. Chem. Phys. 133 134105 (2010).

----- AuxJK basis set information -----
Your calculation utilizes the auxiliary basis: def2/JK
   H-Ba, Hf-Rn: F. Weigend, J. Comput. Chem. 29, 167 (2008).

================================================================================
                                        WARNINGS
                       Please study these warnings very carefully!
================================================================================


WARNING: your system is open-shell and RHF/RKS was chosen
  ===> : WILL SWITCH to UHF/UKS


INFO   : the flag for use of LIBINT has been found!

================================================================================
                                       INPUT FILE
================================================================================
NAME = TMD20_FeS.in
|  1> #
|  2> # TMD20_FeS wB97M-V/Def2-TZVPPD
|  3> #
|  4> ! wb97m-v def2-tzvppd def2/jk grid4 nofinalgrid
|  5> 
|  6> *xyz 0 5
|  7> Fe       0.000000    0.000000    0.769524 
|  8> S        0.000000    0.000000   -1.250476 
|  9> *
| 10> 
| 11> %maxcore 5000
| 12> 
| 13> %pal
| 14> nprocs = 24
| 15> end
| 16> 
| 17> 
| 18>                          ****END OF INPUT****
================================================================================

                       ****************************
                       * Single Point Calculation *
                       ****************************

---------------------------------
CARTESIAN COORDINATES (ANGSTROEM)
---------------------------------
  Fe     0.000000    0.000000    0.769524
  S      0.000000    0.000000   -1.250476

----------------------------
CARTESIAN COORDINATES (A.U.)
----------------------------
  NO LB      ZA    FRAG     MASS         X           Y           Z
   0 Fe   26.0000    0    55.850    0.000000    0.000000    1.454190
   1 S    16.0000    0    32.060    0.000000    0.000000   -2.363057

--------------------------------
INTERNAL COORDINATES (ANGSTROEM)
--------------------------------
 Fe     0   0   0     0.000000000000     0.00000000     0.00000000
 S      1   0   0     2.020000000000     0.00000000     0.00000000

---------------------------
INTERNAL COORDINATES (A.U.)
---------------------------
 Fe     0   0   0     0.000000000000     0.00000000     0.00000000
 S      1   0   0     3.817246790521     0.00000000     0.00000000

---------------------
BASIS SET INFORMATION
---------------------
There are 2 groups of distinct atoms

 Group   1 Type Fe  : 17s13p7d2f1g contracted to 6s6p4d2f1g pattern {842111/631111/4111/11/1}
 Group   2 Type S   : 15s10p4d1f contracted to 6s6p4d1f pattern {732111/511111/1111/1}

Atom   0Fe   basis set group =>   1
Atom   1S    basis set group =>   2
----------------------------------
AUXILIARY/JK BASIS SET INFORMATION
----------------------------------
There are 2 groups of distinct atoms

 Group   1 Type Fe  : 19s14p12d10f7g3h1i contracted to 16s13p11d9f5g3h1i pattern {4111111111111111/2111111111111/21111111111/211111111/31111/111/1}
 Group   2 Type S   : 16s12p10d4f1g contracted to 13s11p9d4f1g pattern {4111111111111/21111111111/211111111/1111/1}

Atom   0Fe   basis set group =>   1
Atom   1S    basis set group =>   2


           ************************************************************
           *        Program running with 24 parallel MPI-processes    *
           *              working on a common directory               *
           ************************************************************
------------------------------------------------------------------------------
                           ORCA GTO INTEGRAL CALCULATION
------------------------------------------------------------------------------

                         BASIS SET STATISTICS AND STARTUP INFO

 # of primitive gaussian shells          ...   70
 # of primitive gaussian functions       ...  186
 # of contracted shells                  ...   36
 # of contracted basis functions         ...  118
 Highest angular momentum                ...    4
 Maximum contraction depth               ...    8
 Integral package used                   ... LIBINT
 Integral threshhold            Thresh   ...  1.000e-10
 Primitive cut-off              TCut     ...  1.000e-11


------------------------------ INTEGRAL EVALUATION ----------------------------


 * One electron integrals 
 Pre-screening matrix                    ... done
 Shell pair data                         ... done (   0.000 sec)



           ************************************************************
           *        Program running with 24 parallel MPI-processes    *
           *              working on a common directory               *
           ************************************************************
-------------------------------------------------------------------------------
                                 ORCA SCF
-------------------------------------------------------------------------------

------------
SCF SETTINGS
------------
Hamiltonian:
 Density Functional     Method          .... DFT(GTOs)
 Exchange Functional    Exchange        .... WB97M-V
 Correlation Functional Correlation     .... WB97M-V
 Gradients option       PostSCFGGA      .... off
 Hybrid DFT is turned on
   Fraction HF Exchange ScalHFX         ....  0.150000
   Scaling of DF-GGA-X  ScalDFX         ....  0.000000
   Scaling of DF-GGA-C  ScalDFC         ....  1.000000
   Scaling of DF-LDA-C  ScalLDAC        ....  1.000000
   Perturbative correction              ....  0.000000
   Density functional embedding theory  .... OFF
 Long-range corrected/Screened/Range-Separated Hybrid DFT is turned on
   Amount of maximum screened exact exchange              ....  0.850000
   Range separation parameter mu (erf(mu*r12)/r12)        ....  0.300000
   NL short-range parameter             ....  6.000000
   NL long-range parameter              ....  0.010000


General Settings:
 Integral files         IntName         .... TMD20_FeS
 Hartree-Fock type      HFTyp           .... UHF
 Total Charge           Charge          ....    0
 Multiplicity           Mult            ....    5
 Number of Electrons    NEL             ....   42
 Basis Dimension        Dim             ....  118
 Nuclear Repulsion      ENuc            ....    108.9790686400 Eh

Convergence Acceleration:
 DIIS                   CNVDIIS         .... on
   Start iteration      DIISMaxIt       ....    12
   Startup error        DIISStart       ....  0.200000
   # of expansion vecs  DIISMaxEq       ....     5
   Bias factor          DIISBfac        ....   1.050
   Max. coefficient     DIISMaxC        ....  10.000
 Newton-Raphson         CNVNR           .... off
 SOSCF                  CNVSOSCF        .... off
 Level Shifting         CNVShift        .... on
   Level shift para.    LevelShift      ....    0.2500
   Turn off err/grad.   ShiftErr        ....    0.0010
 Zerner damping         CNVZerner       .... off
 Static damping         CNVDamp         .... on
   Fraction old density DampFac         ....    0.7000
   Max. Damping (<1)    DampMax         ....    0.9800
   Min. Damping (>=0)   DampMin         ....    0.0000
   Turn off err/grad.   DampErr         ....    0.1000
 Fernandez-Rico         CNVRico         .... off

SCF Procedure:
 Maximum # iterations   MaxIter         ....   125
 SCF integral mode      SCFMode         .... Direct
   Integral package                     .... LIBINT
 Reset frequency        DirectResetFreq ....    20
 Integral Threshold     Thresh          ....  1.000e-10 Eh
 Primitive CutOff       TCut            ....  1.000e-11 Eh

Convergence Tolerance:
 Convergence Check Mode ConvCheckMode   .... Total+1el-Energy
 Convergence forced     ConvForced      .... 0
 Energy Change          TolE            ....  1.000e-06 Eh
 1-El. energy change                    ....  1.000e-03 Eh
 DIIS Error             TolErr          ....  1.000e-06


Diagonalization of the overlap matrix:
Smallest eigenvalue                        ... 1.056e-03
Time for diagonalization                   ...    0.003 sec
Threshold for overlap eigenvalues          ... 1.000e-08
Number of eigenvalues below threshold      ... 0
Time for construction of square roots      ...    0.002 sec
Total time needed                          ...    0.005 sec

-------------------
DFT GRID GENERATION
-------------------

General Integration Accuracy     IntAcc      ...  4.670
Radial Grid Type                 RadialGrid  ... Gauss-Chebyshev
Angular Grid (max. acc.)         AngularGrid ... Lebedev-302
Angular grid pruning method      GridPruning ... 3 (G Style)
Weight generation scheme         WeightScheme... Becke
Basis function cutoff            BFCut       ...    1.0000e-10
Integration weight cutoff        WCut        ...    1.0000e-14
Grids for H and He will be reduced by one unit

# of grid points (after initial pruning)     ...  16486 (   0.0 sec)
# of grid points (after weights+screening)   ...  16457 (   0.0 sec)
nearest neighbour list constructed           ...    0.0 sec
Grid point re-assignment to atoms done       ...    0.0 sec
Grid point division into batches done        ...    0.1 sec
Reduced shell lists constructed in    0.1 sec

Total number of grid points                  ...    16457
Total number of batches                      ...      258
Average number of points per batch           ...       63
Average number of grid points per atom       ...     8228
Average number of shells per batch           ...     7.08 (19.68%)
Average number of basis functions per batch  ...    20.25 (17.16%)
Average number of large shells per batch     ...     4.58 (64.71%)
Average number of large basis fcns per batch ...    11.92 (58.85%)
Maximum spatial batch extension              ...  24.49, 24.19, 18.13 au
Average spatial batch extension              ...   0.84,  0.83,  0.65 au

Time for grid setup =    0.165 sec

------------------------------
INITIAL GUESS: MODEL POTENTIAL
------------------------------
Loading Hartree-Fock densities                     ... done
Calculating cut-offs                               ... done
Setting up the integral package                    ... done
Initializing the effective Hamiltonian             ... done
Starting the Coulomb interaction                   ... done (   0.0 sec)
Reading the grid                                   ... done
Mapping shells                                     ... done
Starting the XC term evaluation                    ... done (   0.0 sec)
  promolecular density results
     # of electrons  =     42.000003885
     EX              =    -78.977830262
     EC              =     -1.758648410
     EX+EC           =    -80.736478671
Transforming the Hamiltonian                       ... done (   0.0 sec)
Diagonalizing the Hamiltonian                      ... done (   0.0 sec)
Back transforming the eigenvectors                 ... done (   0.0 sec)
Now organizing SCF variables                       ... done
                      ------------------
                      INITIAL GUESS DONE (   0.2 sec)
                      ------------------
--------------
SCF ITERATIONS
--------------
ITER       Energy         Delta-E        Max-DP      RMS-DP      [F,P]     Damp
               ***  Starting incremental Fock matrix formation  ***
  0  -1661.8961451661   0.000000000000 0.02918057  0.00055045  0.0984329 0.7000
  1  -1661.9196195857  -0.023474419663 0.01970069  0.00043478  0.0631256 0.7000
                               ***Turning on DIIS***
  2  -1661.9338363115  -0.014216725801 0.03598234  0.00095854  0.0360565 0.0000
  3  -1661.9636711810  -0.029834869414 0.02280620  0.00037996  0.0206185 0.0000
  4  -1661.9687670725  -0.005095891585 0.01019984  0.00020636  0.0109728 0.0000
  5  -1661.9709514765  -0.002184403921 0.01588758  0.00025623  0.0085488 0.0000
  6  -1661.9726031780  -0.001651701501 0.00685700  0.00014070  0.0079603 0.0000
  7  -1661.9733692870  -0.000766108989 0.01394984  0.00020173  0.0070876 0.0000
  8  -1661.9739403481  -0.000571061157 0.00904384  0.00012203  0.0028404 0.0000
  9  -1661.9741364180  -0.000196069876 0.00563902  0.00007422  0.0018286 0.0000
 10  -1661.9742006579  -0.000064239889 0.00321276  0.00004200  0.0010557 0.0000
 11  -1661.9742211314  -0.000020473491 0.00285144  0.00004127  0.0007053 0.0000
 12  -1661.9742287187  -0.000007587303 0.00038691  0.00000794  0.0004005 0.0000
 13  -1661.9742336393  -0.000004920634 0.00080159  0.00001080  0.0002671 0.0000
 14  -1661.9742339608  -0.000000321449 0.00064549  0.00000949  0.0001601 0.0000
 15  -1661.9742349568  -0.000000995997 0.00024983  0.00000395  0.0001691 0.0000
 16  -1661.9742348469   0.000000109806 0.00018483  0.00000238  0.0000572 0.0000
                 **** Energy Check signals convergence ****

               *****************************************************
               *                     SUCCESS                       *
               *           SCF CONVERGED AFTER  17 CYCLES          *
               *****************************************************


Setting up the DFT-NL grid :

General Integration Accuracy     IntAcc      ...  4.340
Radial Grid Type                 RadialGrid  ... Gauss-Chebyshev
Angular Grid (max. acc.)         AngularGrid ... Lebedev-110
Angular grid pruning method      GridPruning ... 3 (G Style)
Weight generation scheme         WeightScheme... Becke
Basis function cutoff            BFCut       ...    1.0000e-10
Integration weight cutoff        WCut        ...    1.0000e-14
Grids for H and He will be reduced by one unit

# of grid points (after initial pruning)     ...   4718 (   0.0 sec)
# of grid points (after weights+screening)   ...   4693 (   0.0 sec)
nearest neighbour list constructed           ...    0.0 sec
Grid point re-assignment to atoms done       ...    0.0 sec
Grid point division into batches done        ...    0.0 sec
Reduced shell lists constructed in    0.0 sec

Total number of grid points                  ...     4693
Total number of batches                      ...       75
Average number of points per batch           ...       62
Average number of grid points per atom       ...     2346
Average number of shells per batch           ...    11.20 (31.11%)
Average number of basis functions per batch  ...    33.60 (28.47%)
Average number of large shells per batch     ...     9.20 (82.14%)
Average number of large basis fcns per batch ...    25.20 (75.00%)
Maximum spatial batch extension              ...  18.98, 28.73, 16.15 au
Average spatial batch extension              ...   0.95,  1.29,  0.86 au

Final grid set up in    0.0 sec

-------------------------------------------------------------------------------
                         DFT-NL dispersion correction                          
-------------------------------------------------------------------------------

SC Energy -1661.974234466 
NL    Energy 0.175530980 
SC+NL Energy -1661.798703486 
NL done in    0.0 sec
-------------------------------------------------------------------------------

----------------
TOTAL SCF ENERGY
----------------

Total Energy       :        -1661.79870349 Eh          -45219.84165 eV

Components:
Nuclear Repulsion  :          108.97906864 Eh            2965.47122 eV
Electronic Energy  :        -1770.77777213 Eh          -48185.31287 eV
One Electron Energy:        -2513.96868785 Eh          -68408.56582 eV
Two Electron Energy:          743.19091572 Eh           20223.25295 eV

Virial components:
Potential Energy   :        -3321.16290186 Eh          -90373.43706 eV
Kinetic Energy     :         1659.36419837 Eh           45153.59540 eV
Virial Ratio       :            2.00146713


DFT components:
N(Alpha)           :       23.000004494324 electrons
N(Beta)            :       19.000003803438 electrons
N(Total)           :       42.000008297762 electrons
E(X)               :      -61.762646961896 Eh       
E(C)               :       -2.029500723626 Eh       
NL Energy, E(C,NL) :        0.175530980263 Eh       
E(XC)              :      -63.616616705260 Eh       
DFET-embed. en.    :        0.000000000000 Eh       

---------------
SCF CONVERGENCE
---------------

  Last Energy change         ...    3.8115e-07  Tolerance :   1.0000e-06
  Last MAX-Density change    ...    3.3929e-05  Tolerance :   1.0000e-05
  Last RMS-Density change    ...    6.6580e-07  Tolerance :   1.0000e-06
  Last DIIS Error            ...    1.9816e-05  Tolerance :   1.0000e-06

             **** THE GBW FILE WAS UPDATED (TMD20_FeS.gbw) ****
             **** DENSITY FILE WAS UPDATED (TMD20_FeS.scfp) ****
             **** ENERGY FILE WAS UPDATED (TMD20_FeS.en.tmp) ****
----------------------
UHF SPIN CONTAMINATION
----------------------

Warning: in a DFT calculation there is little theoretical justification to 
         calculate <S**2> as in Hartree-Fock theory. We will do it anyways
         but you should keep in mind that the values have only limited relevance

Expectation value of <S**2>     :     6.018110
Ideal value S*(S+1) for S=2.0   :     6.000000
Deviation                       :     0.018110

             **** THE GBW FILE WAS UPDATED (TMD20_FeS.gbw) ****
             **** DENSITY FILE WAS UPDATED (TMD20_FeS.scfp) ****
----------------
ORBITAL ENERGIES
----------------
                 SPIN UP ORBITALS
  NO   OCC          E(Eh)            E(eV) 
   0   1.0000    -256.613882     -6982.8187 
   1   1.0000     -89.131605     -2425.3943 
   2   1.0000     -30.327945      -825.2653 
   3   1.0000     -26.106915      -710.4053 
   4   1.0000     -26.084962      -709.8079 
   5   1.0000     -26.084962      -709.8079 
   6   1.0000      -8.060201      -219.3292 
   7   1.0000      -5.967427      -162.3820 
   8   1.0000      -5.967186      -162.3754 
   9   1.0000      -5.967186      -162.3754 
  10   1.0000      -3.707549      -100.8875 
  11   1.0000      -2.493866       -67.8615 
  12   1.0000      -2.447077       -66.5884 
  13   1.0000      -2.447077       -66.5884 
  14   1.0000      -0.750832       -20.4312 
  15   1.0000      -0.496741       -13.5170 
  16   1.0000      -0.495500       -13.4832 
  17   1.0000      -0.495500       -13.4832 
  18   1.0000      -0.467142       -12.7116 
  19   1.0000      -0.441421       -12.0117 
  20   1.0000      -0.345320        -9.3966 
  21   1.0000      -0.307980        -8.3806 
  22   1.0000      -0.307980        -8.3806 
  23   0.0000      -0.061175        -1.6647 
  24   0.0000       0.022476         0.6116 
  25   0.0000       0.022476         0.6116 
  26   0.0000       0.042264         1.1501 
  27   0.0000       0.076473         2.0809 
  28   0.0000       0.085761         2.3337 
  29   0.0000       0.085762         2.3337 
  30   0.0000       0.128341         3.4923 
  31   0.0000       0.143422         3.9027 
  32   0.0000       0.143422         3.9027 
  33   0.0000       0.202778         5.5179 
  34   0.0000       0.203724         5.5436 
  35   0.0000       0.204745         5.5714 
  36   0.0000       0.231915         6.3107 
  37   0.0000       0.261092         7.1047 
  38   0.0000       0.261092         7.1047 
  39   0.0000       0.283043         7.7020 
  40   0.0000       0.283627         7.7179 
  41   0.0000       0.322598         8.7783 
  42   0.0000       0.338151         9.2016 
  43   0.0000       0.338151         9.2016 
  44   0.0000       0.417579        11.3629 
  45   0.0000       0.534680        14.5494 
  46   0.0000       0.534680        14.5494 
  47   0.0000       0.555205        15.1079 
  48   0.0000       0.587887        15.9972 
  49   0.0000       0.587887        15.9972 
  50   0.0000       0.612909        16.6781 
  51   0.0000       0.613165        16.6851 
  52   0.0000       0.645528        17.5657 
  53   0.0000       0.655064        17.8252 
  54   0.0000       0.655064        17.8252 
  55   0.0000       0.755232        20.5509 
  56   0.0000       0.947892        25.7935 
  57   0.0000       0.952336        25.9144 
  58   0.0000       1.031271        28.0623 
  59   0.0000       1.041971        28.3535 
  60   0.0000       1.041971        28.3535 
  61   0.0000       1.245882        33.9022 
  62   0.0000       1.701311        46.2950 
  63   0.0000       1.701563        46.3019 
  64   0.0000       1.704667        46.3863 
  65   0.0000       1.728618        47.0381 
  66   0.0000       1.728618        47.0381 
  67   0.0000       1.773530        48.2602 
  68   0.0000       1.774058        48.2746 
  69   0.0000       1.789248        48.6879 
  70   0.0000       1.789248        48.6879 
  71   0.0000       1.836476        49.9731 
  72   0.0000       1.836476        49.9731 
  73   0.0000       2.000339        54.4320 
  74   0.0000       2.047605        55.7182 
  75   0.0000       2.047605        55.7182 
  76   0.0000       2.155633        58.6578 
  77   0.0000       2.388491        64.9942 
  78   0.0000       2.388491        64.9942 
  79   0.0000       2.423217        65.9391 
  80   0.0000       2.434761        66.2532 
  81   0.0000       2.454692        66.7956 
  82   0.0000       2.454692        66.7956 
  83   0.0000       2.561822        69.7107 
  84   0.0000       2.777548        75.5809 
  85   0.0000       2.777548        75.5809 
  86   0.0000       2.997472        81.5653 
  87   0.0000       3.240382        88.1753 
  88   0.0000       3.519096        95.7595 
  89   0.0000       3.543996        96.4370 
  90   0.0000       3.563531        96.9686 
  91   0.0000       3.563531        96.9686 
  92   0.0000       3.790126       103.1346 
  93   0.0000       6.916968       188.2203 
  94   0.0000       6.917061       188.2228 
  95   0.0000       6.950891       189.1434 
  96   0.0000       6.950891       189.1434 
  97   0.0000       7.012217       190.8121 
  98   0.0000       8.546674       232.5668 
  99   0.0000       8.555128       232.7969 
 100   0.0000       8.555128       232.7969 
 101   0.0000       8.566069       233.0946 
 102   0.0000       8.569716       233.1938 
 103   0.0000       8.573046       233.2844 
 104   0.0000       8.573046       233.2844 
 105   0.0000       8.586456       233.6493 
 106   0.0000       8.589322       233.7273 
 107   0.0000       9.121359       248.2048 
 108   0.0000       9.121359       248.2048 
 109   0.0000       9.239877       251.4298 
 110   0.0000       9.261498       252.0182 
 111   0.0000       9.272088       252.3064 
 112   0.0000       9.272088       252.3064 
 113   0.0000       9.339147       254.1311 
 114   0.0000       9.351845       254.4766 
 115   0.0000       9.351845       254.4766 
 116   0.0000       9.629905       262.0430 
 117   0.0000      18.798421       511.5310 

                 SPIN DOWN ORBITALS
  NO   OCC          E(Eh)            E(eV) 
   0   1.0000    -256.611882     -6982.7643 
   1   1.0000     -89.129427     -2425.3350 
   2   1.0000     -30.250792      -823.1659 
   3   1.0000     -26.039325      -708.5660 
   4   1.0000     -26.027082      -708.2329 
   5   1.0000     -26.027082      -708.2329 
   6   1.0000      -8.058332      -219.2784 
   7   1.0000      -5.966863      -162.3666 
   8   1.0000      -5.962530      -162.2487 
   9   1.0000      -5.962530      -162.2487 
  10   1.0000      -3.549254       -96.5801 
  11   1.0000      -2.294627       -62.4400 
  12   1.0000      -2.286291       -62.2132 
  13   1.0000      -2.286291       -62.2132 
  14   1.0000      -0.733572       -19.9615 
  15   1.0000      -0.368340       -10.0230 
  16   1.0000      -0.361807        -9.8453 
  17   1.0000      -0.324377        -8.8268 
  18   1.0000      -0.324377        -8.8268 
  19   0.0000      -0.087476        -2.3804 
  20   0.0000      -0.027791        -0.7562 
  21   0.0000      -0.027791        -0.7562 
  22   0.0000      -0.014294        -0.3890 
  23   0.0000       0.026100         0.7102 
  24   0.0000       0.026100         0.7102 
  25   0.0000       0.031190         0.8487 
  26   0.0000       0.039103         1.0640 
  27   0.0000       0.072607         1.9757 
  28   0.0000       0.076874         2.0918 
  29   0.0000       0.076874         2.0919 
  30   0.0000       0.126601         3.4450 
  31   0.0000       0.132394         3.6026 
  32   0.0000       0.132394         3.6026 
  33   0.0000       0.194429         5.2907 
  34   0.0000       0.201922         5.4946 
  35   0.0000       0.203924         5.5490 
  36   0.0000       0.228416         6.2155 
  37   0.0000       0.260365         7.0849 
  38   0.0000       0.260454         7.0873 
  39   0.0000       0.260454         7.0873 
  40   0.0000       0.266799         7.2600 
  41   0.0000       0.326193         8.8762 
  42   0.0000       0.326306         8.8792 
  43   0.0000       0.326306         8.8792 
  44   0.0000       0.401998        10.9389 
  45   0.0000       0.535930        14.5834 
  46   0.0000       0.535930        14.5834 
  47   0.0000       0.560987        15.2652 
  48   0.0000       0.586186        15.9509 
  49   0.0000       0.586186        15.9509 
  50   0.0000       0.622372        16.9356 
  51   0.0000       0.622906        16.9501 
  52   0.0000       0.651060        17.7163 
  53   0.0000       0.664534        18.0829 
  54   0.0000       0.664534        18.0829 
  55   0.0000       0.765792        20.8383 
  56   0.0000       0.970548        26.4100 
  57   0.0000       0.972766        26.4703 
  58   0.0000       1.049394        28.5555 
  59   0.0000       1.073123        29.2011 
  60   0.0000       1.073123        29.2012 
  61   0.0000       1.260902        34.3109 
  62   0.0000       1.710752        46.5519 
  63   0.0000       1.720783        46.8249 
  64   0.0000       1.720989        46.8305 
  65   0.0000       1.733875        47.1811 
  66   0.0000       1.733875        47.1811 
  67   0.0000       1.786130        48.6031 
  68   0.0000       1.786186        48.6046 
  69   0.0000       1.809250        49.2322 
  70   0.0000       1.809250        49.2322 
  71   0.0000       1.856837        50.5271 
  72   0.0000       1.856837        50.5271 
  73   0.0000       2.017544        54.9002 
  74   0.0000       2.067763        56.2667 
  75   0.0000       2.067763        56.2667 
  76   0.0000       2.170413        59.0600 
  77   0.0000       2.459057        66.9143 
  78   0.0000       2.459057        66.9143 
  79   0.0000       2.494548        67.8801 
  80   0.0000       2.510232        68.3069 
  81   0.0000       2.528278        68.7979 
  82   0.0000       2.528278        68.7979 
  83   0.0000       2.649906        72.1076 
  84   0.0000       2.835011        77.1446 
  85   0.0000       2.835011        77.1446 
  86   0.0000       3.088702        84.0478 
  87   0.0000       3.299776        89.7915 
  88   0.0000       3.611960        98.2864 
  89   0.0000       3.659903        99.5910 
  90   0.0000       3.684408       100.2578 
  91   0.0000       3.684408       100.2578 
  92   0.0000       3.890227       105.8585 
  93   0.0000       6.921861       188.3534 
  94   0.0000       6.921974       188.3565 
  95   0.0000       6.952066       189.1753 
  96   0.0000       6.952066       189.1753 
  97   0.0000       7.013455       190.8458 
  98   0.0000       8.678082       236.1426 
  99   0.0000       8.684890       236.3279 
 100   0.0000       8.684890       236.3279 
 101   0.0000       8.696892       236.6545 
 102   0.0000       8.697089       236.6598 
 103   0.0000       8.698834       236.7073 
 104   0.0000       8.701173       236.7709 
 105   0.0000       8.701173       236.7709 
 106   0.0000       8.711655       237.0562 
 107   0.0000       9.139869       248.7085 
 108   0.0000       9.139869       248.7085 
 109   0.0000       9.363359       254.7900 
 110   0.0000       9.409501       256.0455 
 111   0.0000       9.418398       256.2876 
 112   0.0000       9.418398       256.2876 
 113   0.0000       9.441125       256.9061 
 114   0.0000       9.523032       259.1349 
 115   0.0000       9.523032       259.1349 
 116   0.0000       9.781933       266.1799 
 117   0.0000      18.800185       511.5790 

                    ********************************
                    * MULLIKEN POPULATION ANALYSIS *
                    ********************************

--------------------------------------------
MULLIKEN ATOMIC CHARGES AND SPIN POPULATIONS
--------------------------------------------
   0 Fe:    0.398232    3.594642
   1 S :   -0.398232    0.405358
Sum of atomic charges         :   -0.0000000
Sum of atomic spin populations:    4.0000000

-----------------------------------------------------
MULLIKEN REDUCED ORBITAL CHARGES AND SPIN POPULATIONS
-----------------------------------------------------
CHARGE
  0 Fes       :     6.699092  s :     6.699092
      pz      :     4.075280  p :    12.307964
      px      :     4.116342
      py      :     4.116342
      dz2     :     1.126376  d :     6.592035
      dxz     :     1.233625
      dyz     :     1.233625
      dx2y2   :     0.999443
      dxy     :     1.998966
      f0      :     0.000867  f :     0.002615
      f+1     :     0.000767
      f-1     :     0.000767
      f+2     :     0.000051
      f-2     :     0.000083
      f+3     :     0.000041
      f-3     :     0.000041
      g0      :     0.000020  g :     0.000063
      g+1     :     0.000013
      g-1     :     0.000013
      g+2     :     0.000002
      g-2     :     0.000005
      g+3     :     0.000001
      g-3     :     0.000001
      g+4     :     0.000010
      g-4     :     0.000000
  1 S s       :     5.843363  s :     5.843363
      pz      :     3.243717  p :    10.504141
      px      :     3.630212
      py      :     3.630212
      dz2     :     0.008923  d :     0.044351
      dxz     :     0.017156
      dyz     :     0.017156
      dx2y2   :     0.000411
      dxy     :     0.000705
      f0      :     0.002353  f :     0.006376
      f+1     :     0.001844
      f-1     :     0.001844
      f+2     :     0.000093
      f-2     :     0.000242
      f+3     :     0.000000
      f-3     :     0.000000

SPIN
  0 Fes       :     0.257708  s :     0.257708
      pz      :     0.003139  p :     0.051179
      px      :     0.024020
      py      :     0.024020
      dz2     :     0.780625  d :     3.285423
      dxz     :     0.752766
      dyz     :     0.752766
      dx2y2   :     0.999443
      dxy     :    -0.000177
      f0      :     0.000089  f :     0.000318
      f+1     :     0.000111
      f-1     :     0.000111
      f+2     :     0.000051
      f-2     :     0.000022
      f+3     :    -0.000032
      f-3     :    -0.000032
      g0      :     0.000005  g :     0.000014
      g+1     :     0.000002
      g-1     :     0.000002
      g+2     :     0.000002
      g-2     :     0.000005
      g+3     :     0.000000
      g-3     :     0.000000
      g+4     :    -0.000002
      g-4     :    -0.000000
  1 S s       :    -0.013541  s :    -0.013541
      pz      :    -0.027125  p :     0.430872
      px      :     0.228998
      py      :     0.228998
      dz2     :    -0.001452  d :    -0.012158
      dxz     :    -0.005653
      dyz     :    -0.005653
      dx2y2   :     0.000411
      dxy     :     0.000188
      f0      :     0.000555  f :     0.000185
      f+1     :    -0.000213
      f-1     :    -0.000213
      f+2     :     0.000093
      f-2     :    -0.000037
      f+3     :    -0.000000
      f-3     :    -0.000000


                     *******************************
                     * LOEWDIN POPULATION ANALYSIS *
                     *******************************

-------------------------------------------
LOEWDIN ATOMIC CHARGES AND SPIN POPULATIONS
-------------------------------------------
   0 Fe:    0.139056    3.524091
   1 S :   -0.139056    0.475909

----------------------------------------------------
LOEWDIN REDUCED ORBITAL CHARGES AND SPIN POPULATIONS
----------------------------------------------------
CHARGE
  0 Fes       :     6.411581  s :     6.411581
      pz      :     4.233560  p :    12.572426
      px      :     4.169433
      py      :     4.169433
      dz2     :     1.265792  d :     6.869571
      dxz     :     1.305792
      dyz     :     1.305792
      dx2y2   :     0.998012
      dxy     :     1.994183
      f0      :     0.003515  f :     0.007276
      f+1     :     0.001763
      f-1     :     0.001763
      f+2     :     0.000057
      f-2     :     0.000096
      f+3     :     0.000041
      f-3     :     0.000041
      g0      :     0.000037  g :     0.000089
      g+1     :     0.000017
      g-1     :     0.000017
      g+2     :     0.000001
      g-2     :     0.000005
      g+3     :     0.000001
      g-3     :     0.000001
      g+4     :     0.000010
      g-4     :     0.000000
  1 S s       :     5.559816  s :     5.559816
      pz      :     3.449325  p :    10.446538
      px      :     3.498606
      py      :     3.498606
      dz2     :     0.068727  d :     0.116527
      dxz     :     0.020594
      dyz     :     0.020594
      dx2y2   :     0.001642
      dxy     :     0.004970
      f0      :     0.007636  f :     0.016175
      f+1     :     0.003753
      f-1     :     0.003753
      f+2     :     0.000287
      f-2     :     0.000746
      f+3     :     0.000000
      f-3     :     0.000000

SPIN
  0 Fes       :     0.149701  s :     0.149701
      pz      :    -0.001046  p :     0.088662
      px      :     0.044854
      py      :     0.044854
      dz2     :     0.773715  d :     3.285018
      dxz     :     0.756027
      dyz     :     0.756027
      dx2y2   :     0.998012
      dxy     :     0.001237
      f0      :    -0.000077  f :     0.000700
      f+1     :     0.000381
      f-1     :     0.000381
      f+2     :     0.000057
      f-2     :     0.000022
      f+3     :    -0.000032
      f-3     :    -0.000032
      g0      :     0.000002  g :     0.000010
      g+1     :     0.000002
      g-1     :     0.000002
      g+2     :     0.000001
      g-2     :     0.000005
      g+3     :     0.000000
      g-3     :     0.000000
      g+4     :    -0.000002
      g-4     :    -0.000000
  1 S s       :     0.014954  s :     0.014954
      pz      :     0.053361  p :     0.451506
      px      :     0.199072
      py      :     0.199072
      dz2     :     0.007430  d :     0.004557
      dxz     :    -0.001681
      dyz     :    -0.001681
      dx2y2   :     0.001642
      dxy     :    -0.001153
      f0      :     0.001962  f :     0.004892
      f+1     :     0.001377
      f-1     :     0.001377
      f+2     :     0.000287
      f-2     :    -0.000111
      f+3     :    -0.000000
      f-3     :    -0.000000


                      *****************************
                      * MAYER POPULATION ANALYSIS *
                      *****************************

  NA   - Mulliken gross atomic population
  ZA   - Total nuclear charge
  QA   - Mulliken gross atomic charge
  VA   - Mayer's total valence
  BVA  - Mayer's bonded valence
  FA   - Mayer's free valence

  ATOM       NA         ZA         QA         VA         BVA        FA
  0 Fe    25.6018    26.0000     0.3982     5.3707     2.1178     3.2529
  1 S     16.3982    16.0000    -0.3982     2.2237     2.1178     0.1059

  Mayer bond orders larger than 0.100000
B(  0-Fe,  1-S ) :   2.1178 

-------
TIMINGS
-------

Total SCF time: 0 days 0 hours 0 min 5 sec 

Total time                  ....       5.355 sec
Sum of individual times     ....       5.134 sec  ( 95.9%)

Fock matrix formation       ....       4.769 sec  ( 89.0%)
  XC integration            ....       0.430 sec  (  9.0% of F)
    Basis function eval.    ....       0.025 sec  (  5.8% of XC)
    Density eval.           ....       0.061 sec  ( 14.1% of XC)
    XC-Functional eval.     ....       0.021 sec  (  4.8% of XC)
    XC-Potential eval.      ....       0.152 sec  ( 35.4% of XC)
Diagonalization             ....       0.062 sec  (  1.2%)
Density matrix formation    ....       0.009 sec  (  0.2%)
Population analysis         ....       0.006 sec  (  0.1%)
Initial guess               ....       0.085 sec  (  1.6%)
Orbital Transformation      ....       0.000 sec  (  0.0%)
Orbital Orthonormalization  ....       0.000 sec  (  0.0%)
DIIS solution               ....       0.024 sec  (  0.5%)
Grid generation             ....       0.179 sec  (  3.3%)

-------------------------   --------------------
FINAL SINGLE POINT ENERGY     -1661.798703485539
-------------------------   --------------------


                            ***************************************
                            *     ORCA property calculations      *
                            ***************************************

                                    ---------------------
                                    Active property flags
                                    ---------------------
   (+) Dipole Moment


------------------------------------------------------------------------------
                       ORCA ELECTRIC PROPERTIES CALCULATION
------------------------------------------------------------------------------

Dipole Moment Calculation                       ... on
Quadrupole Moment Calculation                   ... off
Polarizability Calculation                      ... off
GBWName                                         ... TMD20_FeS.gbw
Electron density file                           ... TMD20_FeS.scfp
The origin for moment calculation is the CENTER OF MASS  = ( 0.000000,  0.000000  0.062073)

-------------
DIPOLE MOMENT
-------------
                                X             Y             Z
Electronic contribution:     -0.00000       0.00000       5.15591
Nuclear contribution   :      0.00000       0.00000      -2.60707
                        -----------------------------------------
Total Dipole Moment    :     -0.00000       0.00000       2.54884
                        -----------------------------------------
Magnitude (a.u.)       :      2.54884
Magnitude (Debye)      :      6.47864



--------------------
Rotational spectrum 
--------------------
 
Rotational constants in cm-1:     0.000000     0.202836     0.202836 
Rotational constants in MHz :     0.000000  6080.880231  6080.880231 

 Dipole components along the rotational axes: 
x,y,z [a.u.] :     2.548842     0.000000    -0.000000 
x,y,z [Debye]:     6.478642     0.000000    -0.000000 

 

Timings for individual modules:

Sum of individual times         ...        6.438 sec (=   0.107 min)
GTO integral calculation        ...        0.686 sec (=   0.011 min)  10.7 %
SCF iterations                  ...        5.751 sec (=   0.096 min)  89.3 %
                             ****ORCA TERMINATED NORMALLY****
TOTAL RUN TIME: 0 days 0 hours 0 minutes 6 seconds 893 msec
