
                                 *****************
                                 * O   R   C   A *
                                 *****************

           --- An Ab Initio, DFT and Semiempirical electronic structure package ---

                  #######################################################
                  #                        -***-                        #
                  #          Department of theory and spectroscopy      #
                  #               Directorship: Frank Neese             #
                  #        Max Planck Institute fuer Kohlenforschung    #
                  #                Kaiser Wilhelm Platz 1               #
                  #                 D-45470 Muelheim/Ruhr               #
                  #                      Germany                        #
                  #                                                     #
                  #                  All rights reserved                #
                  #                        -***-                        #
                  #######################################################


                         Program Version 4.2.0 -  RELEASE  -


 With contributions from (in alphabetic order):
   Daniel Aravena         : Magnetic Suceptibility
   Michael Atanasov       : Ab Initio Ligand Field Theory (pilot matlab implementation)
   Alexander A. Auer      : GIAO ZORA, VPT2
   Ute Becker             : Parallelization
   Giovanni Bistoni       : ED, misc. LED, open-shell LED, HFLED
   Martin Brehm           : Molecular dynamics
   Dmytro Bykov           : SCF Hessian
   Vijay G. Chilkuri      : MRCI spin determinant printing, contributions to CSF-ICE
   Dipayan Datta          : RHF DLPNO-CCSD density
   Achintya Kumar Dutta   : EOM-CC, STEOM-CC
   Dmitry Ganyushin       : Spin-Orbit,Spin-Spin,Magnetic field MRCI
   Miquel Garcia          : C-PCM Hessian, Gaussian charge scheme
   Yang Guo               : DLPNO-NEVPT2, CIM, IAO-localization
   Andreas Hansen         : Spin unrestricted coupled pair/coupled cluster methods
   Benjamin Helmich-Paris : CASSCF linear response (MC-RPA)
   Lee Huntington         : MR-EOM, pCC
   Robert Izsak           : Overlap fitted RIJCOSX, COSX-SCS-MP3, EOM
   Christian Kollmar      : KDIIS, OOCD, Brueckner-CCSD(T), CCSD density
   Simone Kossmann        : Meta GGA functionals, TD-DFT gradient, OOMP2, MP2 Hessian
   Martin Krupicka        : AUTO-CI
   Lucas Lang             : DCDCAS
   Dagmar Lenk            : GEPOL surface, SMD
   Dimitrios Liakos       : Extrapolation schemes; Compound Job, initial MDCI parallelization
   Dimitrios Manganas     : Further ROCIS development; embedding schemes
   Dimitrios Pantazis     : SARC Basis sets
   Taras Petrenko         : DFT Hessian,TD-DFT gradient, ASA, ECA, R-Raman, ABS, FL, XAS/XES, NRVS
   Peter Pinski           : DLPNO-MP2, DLPNO-MP2 Gradient
   Christoph Reimann      : Effective Core Potentials
   Marius Retegan         : Local ZFS, SOC
   Christoph Riplinger    : Optimizer, TS searches, QM/MM, DLPNO-CCSD(T), (RO)-DLPNO pert. Triples
   Tobias Risthaus        : Range-separated hybrids, TD-DFT gradient, RPA, STAB
   Michael Roemelt        : Original ROCIS implementation
   Masaaki Saitow         : Open-shell DLPNO-CCSD energy and density
   Barbara Sandhoefer     : DKH picture change effects
   Avijit Sen             : IP-ROCIS
   Kantharuban Sivalingam : CASSCF convergence, NEVPT2, FIC-MRCI
   Bernardo de Souza      : ESD, SOC TD-DFT
   Georgi Stoychev        : AutoAux, RI-MP2 NMR
   Willem Van den Heuvel  : Paramagnetic NMR
   Boris Wezisla          : Elementary symmetry handling
   Frank Wennmohs         : Technical directorship


 We gratefully acknowledge several colleagues who have allowed us to
 interface, adapt or use parts of their codes:
   Stefan Grimme, W. Hujo, H. Kruse,             : VdW corrections, initial TS optimization,
                  C. Bannwarth                     DFT functionals, gCP, sTDA/sTD-DF
   Ed Valeev, F. Pavosevic, A. Kumar             : LibInt (2-el integral package), F12 methods
   Garnet Chan, S. Sharma, J. Yang, R. Olivares  : DMRG
   Ulf Ekstrom                                   : XCFun DFT Library
   Mihaly Kallay                                 : mrcc  (arbitrary order and MRCC methods)
   Andreas Klamt, Michael Diedenhofen            : otool_cosmo (COSMO solvation model)
   Jiri Pittner, Ondrej Demel                    : Mk-CCSD
   Frank Weinhold                                : gennbo (NPA and NBO analysis)
   Christopher J. Cramer and Donald G. Truhlar   : smd solvation model
   Lars Goerigk                                  : TD-DFT with DH, B97 family of functionals
   V. Asgeirsson, H. Jonsson                     : NEB implementation
   FAccTs GmbH                                   : IRC, NEB, NEB-TS, Multilevel, MM, QM/MM, CI optimization
   S Lehtola, MJT Oliveira, MAL Marques          : LibXC Library


 Your calculation uses the libint2 library for the computation of 2-el integrals
 For citations please refer to: http://libint.valeyev.net

 Your ORCA version has been built with support for libXC version: 4.2.3
 For citations please refer to: https://tddft.org/programs/libxc/

 This ORCA versions uses:
   CBLAS   interface :  Fast vector & matrix operations
   LAPACKE interface :  Fast linear algebra routines
   SCALAPACK package :  Parallel linear algebra routines


Your calculation utilizes the DFT-NL dispersion correction.
Cite in your paper:
Vydrov, O. A.; Van Voorhis, T. J. Chem. Phys. 2010, 133, 244103
Hujo, W.; Grimme, S. J. Chem. Theory Comput. 2011, 7, 3866 
   

----- Orbital basis set information -----
Your calculation utilizes the basis: def2-TZVPPD
   F. Weigend and R. Ahlrichs, Phys. Chem. Chem. Phys. 7, 3297 (2005).
   D. Rappoport and F. Furche, J. Chem. Phys. 133 134105 (2010).

----- AuxJK basis set information -----
Your calculation utilizes the auxiliary basis: def2/JK
   H-Ba, Hf-Rn: F. Weigend, J. Comput. Chem. 29, 167 (2008).

================================================================================
                                        WARNINGS
                       Please study these warnings very carefully!
================================================================================


WARNING: your system is open-shell and RHF/RKS was chosen
  ===> : WILL SWITCH to UHF/UKS


INFO   : the flag for use of LIBINT has been found!

================================================================================
                                       INPUT FILE
================================================================================
NAME = TMD21_CoH.in
|  1> #
|  2> # TMD21_CoH wB97M-V/Def2-TZVPPD
|  3> #
|  4> ! wb97m-v def2-tzvppd def2/jk grid4 nofinalgrid
|  5> 
|  6> *xyz 0 3
|  7> Co       0.000000    0.000000    0.053929 
|  8> H        0.000000    0.000000   -1.456071 
|  9> *
| 10> 
| 11> %maxcore 5000
| 12> 
| 13> %pal
| 14> nprocs = 24
| 15> end
| 16> 
| 17> 
| 18>                          ****END OF INPUT****
================================================================================

                       ****************************
                       * Single Point Calculation *
                       ****************************

---------------------------------
CARTESIAN COORDINATES (ANGSTROEM)
---------------------------------
  Co     0.000000    0.000000    0.053929
  H      0.000000    0.000000   -1.456071

----------------------------
CARTESIAN COORDINATES (A.U.)
----------------------------
  NO LB      ZA    FRAG     MASS         X           Y           Z
   0 Co   27.0000    0    58.930    0.000000    0.000000    0.101911
   1 H     1.0000    0     1.008    0.000000    0.000000   -2.751575

--------------------------------
INTERNAL COORDINATES (ANGSTROEM)
--------------------------------
 Co     0   0   0     0.000000000000     0.00000000     0.00000000
 H      1   0   0     1.510000000000     0.00000000     0.00000000

---------------------------
INTERNAL COORDINATES (A.U.)
---------------------------
 Co     0   0   0     0.000000000000     0.00000000     0.00000000
 H      1   0   0     2.853486462221     0.00000000     0.00000000

---------------------
BASIS SET INFORMATION
---------------------
There are 2 groups of distinct atoms

 Group   1 Type Co  : 17s13p7d2f1g contracted to 6s6p4d2f1g pattern {842111/631111/4111/11/1}
 Group   2 Type H   : 5s3p1d contracted to 3s3p1d pattern {311/111/1}

Atom   0Co   basis set group =>   1
Atom   1H    basis set group =>   2
----------------------------------
AUXILIARY/JK BASIS SET INFORMATION
----------------------------------
There are 2 groups of distinct atoms

 Group   1 Type Co  : 19s14p12d10f7g3h1i contracted to 16s13p11d9f5g3h1i pattern {4111111111111111/2111111111111/21111111111/211111111/31111/111/1}
 Group   2 Type H   : 4s2p2d contracted to 2s2p2d pattern {31/11/11}

Atom   0Co   basis set group =>   1
Atom   1H    basis set group =>   2


           ************************************************************
           *        Program running with 24 parallel MPI-processes    *
           *              working on a common directory               *
           ************************************************************
------------------------------------------------------------------------------
                           ORCA GTO INTEGRAL CALCULATION
------------------------------------------------------------------------------

                         BASIS SET STATISTICS AND STARTUP INFO

 # of primitive gaussian shells          ...   49
 # of primitive gaussian functions       ...  133
 # of contracted shells                  ...   26
 # of contracted basis functions         ...   84
 Highest angular momentum                ...    4
 Maximum contraction depth               ...    8
 Integral package used                   ... LIBINT
 Integral threshhold            Thresh   ...  1.000e-10
 Primitive cut-off              TCut     ...  1.000e-11


------------------------------ INTEGRAL EVALUATION ----------------------------


 * One electron integrals 
 Pre-screening matrix                    ... done
 Shell pair data                         ... done (   0.000 sec)



           ************************************************************
           *        Program running with 24 parallel MPI-processes    *
           *              working on a common directory               *
           ************************************************************
-------------------------------------------------------------------------------
                                 ORCA SCF
-------------------------------------------------------------------------------

------------
SCF SETTINGS
------------
Hamiltonian:
 Density Functional     Method          .... DFT(GTOs)
 Exchange Functional    Exchange        .... WB97M-V
 Correlation Functional Correlation     .... WB97M-V
 Gradients option       PostSCFGGA      .... off
 Hybrid DFT is turned on
   Fraction HF Exchange ScalHFX         ....  0.150000
   Scaling of DF-GGA-X  ScalDFX         ....  0.000000
   Scaling of DF-GGA-C  ScalDFC         ....  1.000000
   Scaling of DF-LDA-C  ScalLDAC        ....  1.000000
   Perturbative correction              ....  0.000000
   Density functional embedding theory  .... OFF
 Long-range corrected/Screened/Range-Separated Hybrid DFT is turned on
   Amount of maximum screened exact exchange              ....  0.850000
   Range separation parameter mu (erf(mu*r12)/r12)        ....  0.300000
   NL short-range parameter             ....  6.000000
   NL long-range parameter              ....  0.010000


General Settings:
 Integral files         IntName         .... TMD21_CoH
 Hartree-Fock type      HFTyp           .... UHF
 Total Charge           Charge          ....    0
 Multiplicity           Mult            ....    3
 Number of Electrons    NEL             ....   28
 Basis Dimension        Dim             ....   84
 Nuclear Repulsion      ENuc            ....      9.4621090226 Eh

Convergence Acceleration:
 DIIS                   CNVDIIS         .... on
   Start iteration      DIISMaxIt       ....    12
   Startup error        DIISStart       ....  0.200000
   # of expansion vecs  DIISMaxEq       ....     5
   Bias factor          DIISBfac        ....   1.050
   Max. coefficient     DIISMaxC        ....  10.000
 Newton-Raphson         CNVNR           .... off
 SOSCF                  CNVSOSCF        .... off
 Level Shifting         CNVShift        .... on
   Level shift para.    LevelShift      ....    0.2500
   Turn off err/grad.   ShiftErr        ....    0.0010
 Zerner damping         CNVZerner       .... off
 Static damping         CNVDamp         .... on
   Fraction old density DampFac         ....    0.7000
   Max. Damping (<1)    DampMax         ....    0.9800
   Min. Damping (>=0)   DampMin         ....    0.0000
   Turn off err/grad.   DampErr         ....    0.1000
 Fernandez-Rico         CNVRico         .... off

SCF Procedure:
 Maximum # iterations   MaxIter         ....   125
 SCF integral mode      SCFMode         .... Direct
   Integral package                     .... LIBINT
 Reset frequency        DirectResetFreq ....    20
 Integral Threshold     Thresh          ....  1.000e-10 Eh
 Primitive CutOff       TCut            ....  1.000e-11 Eh

Convergence Tolerance:
 Convergence Check Mode ConvCheckMode   .... Total+1el-Energy
 Convergence forced     ConvForced      .... 0
 Energy Change          TolE            ....  1.000e-06 Eh
 1-El. energy change                    ....  1.000e-03 Eh
 DIIS Error             TolErr          ....  1.000e-06


Diagonalization of the overlap matrix:
Smallest eigenvalue                        ... 2.887e-03
Time for diagonalization                   ...    0.003 sec
Threshold for overlap eigenvalues          ... 1.000e-08
Number of eigenvalues below threshold      ... 0
Time for construction of square roots      ...    0.001 sec
Total time needed                          ...    0.004 sec

-------------------
DFT GRID GENERATION
-------------------

General Integration Accuracy     IntAcc      ...  4.670
Radial Grid Type                 RadialGrid  ... Gauss-Chebyshev
Angular Grid (max. acc.)         AngularGrid ... Lebedev-302
Angular grid pruning method      GridPruning ... 3 (G Style)
Weight generation scheme         WeightScheme... Becke
Basis function cutoff            BFCut       ...    1.0000e-10
Integration weight cutoff        WCut        ...    1.0000e-14
Grids for H and He will be reduced by one unit

# of grid points (after initial pruning)     ...  13034 (   0.0 sec)
# of grid points (after weights+screening)   ...  12997 (   0.0 sec)
nearest neighbour list constructed           ...    0.0 sec
Grid point re-assignment to atoms done       ...    0.0 sec
Grid point division into batches done        ...    0.1 sec
Reduced shell lists constructed in    0.1 sec

Total number of grid points                  ...    12997
Total number of batches                      ...      204
Average number of points per batch           ...       63
Average number of grid points per atom       ...     6498
Average number of shells per batch           ...     5.40 (20.77%)
Average number of basis functions per batch  ...    14.20 (16.90%)
Average number of large shells per batch     ...     2.60 (48.15%)
Average number of large basis fcns per batch ...     6.80 (47.89%)
Maximum spatial batch extension              ...  31.41, 28.57, 18.66 au
Average spatial batch extension              ...   1.02,  0.95,  0.71 au

Time for grid setup =    0.116 sec

------------------------------
INITIAL GUESS: MODEL POTENTIAL
------------------------------
Loading Hartree-Fock densities                     ... done
Calculating cut-offs                               ... done
Setting up the integral package                    ... done
Initializing the effective Hamiltonian             ... done
Starting the Coulomb interaction                   ... done (   0.0 sec)
Reading the grid                                   ... done
Mapping shells                                     ... done
Starting the XC term evaluation                    ... done (   0.0 sec)
  promolecular density results
     # of electrons  =     27.999537407
     EX              =    -58.011007362
     EC              =     -1.229296035
     EX+EC           =    -59.240303397
Transforming the Hamiltonian                       ... done (   0.0 sec)
Diagonalizing the Hamiltonian                      ... done (   0.0 sec)
Back transforming the eigenvectors                 ... done (   0.0 sec)
Now organizing SCF variables                       ... done
                      ------------------
                      INITIAL GUESS DONE (   0.2 sec)
                      ------------------
--------------
SCF ITERATIONS
--------------
ITER       Energy         Delta-E        Max-DP      RMS-DP      [F,P]     Damp
               ***  Starting incremental Fock matrix formation  ***
  0  -1383.2372051881   0.000000000000 0.02685897  0.00109492  0.2932289 0.7000
  1  -1383.2803958897  -0.043190701625 0.01329984  0.00053090  0.0748420 0.7000
                               ***Turning on DIIS***
  2  -1383.2960776378  -0.015681748046 0.03540746  0.00101676  0.0544015 0.0000
  3  -1383.3415235668  -0.045445928970 0.00986212  0.00029914  0.0193191 0.0000
  4  -1383.3444340641  -0.002910497339 0.00621414  0.00016918  0.0223901 0.0000
  5  -1383.3459524464  -0.001518382340 0.00755124  0.00022794  0.0124407 0.0000
  6  -1383.3475886559  -0.001636209474 0.00579503  0.00017885  0.0091192 0.0000
  7  -1383.3482835471  -0.000694891207 0.00256257  0.00008788  0.0041935 0.0000
  8  -1383.3484247739  -0.000141226804 0.00120347  0.00003901  0.0015995 0.0000
  9  -1383.3484542084  -0.000029434463 0.00062430  0.00002455  0.0007388 0.0000
 10  -1383.3484735914  -0.000019383051 0.00026004  0.00000690  0.0001147 0.0000
 11  -1383.3484796815  -0.000006090041 0.00010679  0.00000303  0.0001552 0.0000
 12  -1383.3484825368  -0.000002855340 0.00018032  0.00000350  0.0001348 0.0000
 13  -1383.3484850263  -0.000002489446 0.00018063  0.00000298  0.0000339 0.0000
 14  -1383.3484870402  -0.000002013980 0.00014952  0.00000238  0.0000235 0.0000
 15  -1383.3484884296  -0.000001389379 0.00005786  0.00000092  0.0000117 0.0000
                 **** Energy Check signals convergence ****

               *****************************************************
               *                     SUCCESS                       *
               *           SCF CONVERGED AFTER  16 CYCLES          *
               *****************************************************


Setting up the DFT-NL grid :

General Integration Accuracy     IntAcc      ...  4.340
Radial Grid Type                 RadialGrid  ... Gauss-Chebyshev
Angular Grid (max. acc.)         AngularGrid ... Lebedev-110
Angular grid pruning method      GridPruning ... 3 (G Style)
Weight generation scheme         WeightScheme... Becke
Basis function cutoff            BFCut       ...    1.0000e-10
Integration weight cutoff        WCut        ...    1.0000e-14
Grids for H and He will be reduced by one unit

# of grid points (after initial pruning)     ...   3706 (   0.0 sec)
# of grid points (after weights+screening)   ...   3680 (   0.0 sec)
nearest neighbour list constructed           ...    0.0 sec
Grid point re-assignment to atoms done       ...    0.0 sec
Grid point division into batches done        ...    0.0 sec
Reduced shell lists constructed in    0.0 sec

Total number of grid points                  ...     3680
Total number of batches                      ...       59
Average number of points per batch           ...       62
Average number of grid points per atom       ...     1840
Average number of shells per batch           ...     8.50 (32.69%)
Average number of basis functions per batch  ...    22.50 (26.79%)
Average number of large shells per batch     ...     6.75 (79.41%)
Average number of large basis fcns per batch ...    18.75 (83.33%)
Maximum spatial batch extension              ...  37.20, 28.73, 20.01 au
Average spatial batch extension              ...   1.30,  1.32,  0.87 au

Final grid set up in    0.0 sec

-------------------------------------------------------------------------------
                         DFT-NL dispersion correction                          
-------------------------------------------------------------------------------

SC Energy -1383.348488925 
NL    Energy 0.118772450 
SC+NL Energy -1383.229716475 
NL done in    0.0 sec
-------------------------------------------------------------------------------

----------------
TOTAL SCF ENERGY
----------------

Total Energy       :        -1383.22971648 Eh          -37639.59415 eV

Components:
Nuclear Repulsion  :            9.46210902 Eh             257.47708 eV
Electronic Energy  :        -1392.69182550 Eh          -37897.07122 eV
One Electron Energy:        -1937.10581633 Eh          -52711.32905 eV
Two Electron Energy:          544.41399083 Eh           14814.25783 eV

Virial components:
Potential Energy   :        -2764.51468028 Eh          -75226.26888 eV
Kinetic Energy     :         1381.28496381 Eh           37586.67473 eV
Virial Ratio       :            2.00140793


DFT components:
N(Alpha)           :       14.999999733881 electrons
N(Beta)            :       13.000000382675 electrons
N(Total)           :       28.000000116556 electrons
E(X)               :      -45.745883079381 Eh       
E(C)               :       -1.435343962509 Eh       
NL Energy, E(C,NL) :        0.118772449558 Eh       
E(XC)              :      -47.062454592332 Eh       
DFET-embed. en.    :        0.000000000000 Eh       

---------------
SCF CONVERGENCE
---------------

  Last Energy change         ...   -4.9531e-07  Tolerance :   1.0000e-06
  Last MAX-Density change    ...    2.1834e-05  Tolerance :   1.0000e-05
  Last RMS-Density change    ...    3.7439e-07  Tolerance :   1.0000e-06
  Last DIIS Error            ...    5.0531e-06  Tolerance :   1.0000e-06

             **** THE GBW FILE WAS UPDATED (TMD21_CoH.gbw) ****
             **** DENSITY FILE WAS UPDATED (TMD21_CoH.scfp) ****
             **** ENERGY FILE WAS UPDATED (TMD21_CoH.en.tmp) ****
----------------------
UHF SPIN CONTAMINATION
----------------------

Warning: in a DFT calculation there is little theoretical justification to 
         calculate <S**2> as in Hartree-Fock theory. We will do it anyways
         but you should keep in mind that the values have only limited relevance

Expectation value of <S**2>     :     2.010562
Ideal value S*(S+1) for S=1.0   :     2.000000
Deviation                       :     0.010562

             **** THE GBW FILE WAS UPDATED (TMD21_CoH.gbw) ****
             **** DENSITY FILE WAS UPDATED (TMD21_CoH.scfp) ****
----------------
ORBITAL ENERGIES
----------------
                 SPIN UP ORBITALS
  NO   OCC          E(Eh)            E(eV) 
   0   1.0000    -277.980782     -7564.2416 
   1   1.0000     -33.029815      -898.7869 
   2   1.0000     -28.576329      -777.6014 
   3   1.0000     -28.576329      -777.6014 
   4   1.0000     -28.575032      -777.5662 
   5   1.0000      -3.852964      -104.8445 
   6   1.0000      -2.514742       -68.4296 
   7   1.0000      -2.514292       -68.4174 
   8   1.0000      -2.514292       -68.4174 
   9   1.0000      -0.412170       -11.2157 
  10   1.0000      -0.376457       -10.2439 
  11   1.0000      -0.351621        -9.5681 
  12   1.0000      -0.351621        -9.5681 
  13   1.0000      -0.348744        -9.4898 
  14   1.0000      -0.312331        -8.4990 
  15   0.0000      -0.014766        -0.4018 
  16   0.0000       0.029157         0.7934 
  17   0.0000       0.029157         0.7934 
  18   0.0000       0.099981         2.7206 
  19   0.0000       0.114529         3.1165 
  20   0.0000       0.171838         4.6759 
  21   0.0000       0.171838         4.6759 
  22   0.0000       0.217947         5.9306 
  23   0.0000       0.248625         6.7654 
  24   0.0000       0.248625         6.7654 
  25   0.0000       0.270196         7.3524 
  26   0.0000       0.271462         7.3869 
  27   0.0000       0.353276         9.6131 
  28   0.0000       0.357692         9.7333 
  29   0.0000       0.357692         9.7333 
  30   0.0000       0.464421        12.6375 
  31   0.0000       0.539628        14.6840 
  32   0.0000       0.689788        18.7701 
  33   0.0000       0.689788        18.7701 
  34   0.0000       0.734269        19.9805 
  35   0.0000       0.937560        25.5123 
  36   0.0000       0.937560        25.5123 
  37   0.0000       1.075882        29.2762 
  38   0.0000       1.081351        29.4251 
  39   0.0000       1.183274        32.1985 
  40   0.0000       1.238792        33.7093 
  41   0.0000       1.238792        33.7093 
  42   0.0000       1.372196        37.3394 
  43   0.0000       2.524100        68.6843 
  44   0.0000       2.687399        73.1278 
  45   0.0000       2.698959        73.4424 
  46   0.0000       2.698959        73.4424 
  47   0.0000       2.793492        76.0148 
  48   0.0000       2.797251        76.1171 
  49   0.0000       2.797251        76.1171 
  50   0.0000       2.806040        76.3562 
  51   0.0000       2.826916        76.9243 
  52   0.0000       2.826916        76.9243 
  53   0.0000       3.065563        83.4182 
  54   0.0000       3.251092        88.4667 
  55   0.0000       3.358791        91.3974 
  56   0.0000       3.360316        91.4388 
  57   0.0000       3.759097       102.2902 
  58   0.0000       3.759097       102.2902 
  59   0.0000       3.804827       103.5346 
  60   0.0000       3.936691       107.1228 
  61   0.0000       3.963215       107.8446 
  62   0.0000       3.999880       108.8423 
  63   0.0000       3.999880       108.8423 
  64   0.0000       4.055579       110.3579 
  65   0.0000       4.055579       110.3579 
  66   0.0000       4.220973       114.8585 
  67   0.0000       5.187696       141.1644 
  68   0.0000      10.160877       276.4915 
  69   0.0000      10.162537       276.5367 
  70   0.0000      10.170412       276.7510 
  71   0.0000      10.179901       277.0092 
  72   0.0000      10.179901       277.0092 
  73   0.0000      10.191267       277.3185 
  74   0.0000      10.200704       277.5753 
  75   0.0000      10.200704       277.5753 
  76   0.0000      10.221693       278.1464 
  77   0.0000      10.690256       290.8967 
  78   0.0000      10.690256       290.8967 
  79   0.0000      10.702896       291.2406 
  80   0.0000      10.728163       291.9282 
  81   0.0000      10.812146       294.2134 
  82   0.0000      10.812146       294.2134 
  83   0.0000      11.096865       301.9610 

                 SPIN DOWN ORBITALS
  NO   OCC          E(Eh)            E(eV) 
   0   1.0000    -277.979693     -7564.2120 
   1   1.0000     -32.984648      -897.5579 
   2   1.0000     -28.542558      -776.6825 
   3   1.0000     -28.539511      -776.5996 
   4   1.0000     -28.539511      -776.5996 
   5   1.0000      -3.763383      -102.4069 
   6   1.0000      -2.418583       -65.8130 
   7   1.0000      -2.415071       -65.7174 
   8   1.0000      -2.415071       -65.7174 
   9   1.0000      -0.369582       -10.0568 
  10   1.0000      -0.307052        -8.3553 
  11   1.0000      -0.307052        -8.3553 
  12   1.0000      -0.305791        -8.3210 
  13   0.0000      -0.034333        -0.9342 
  14   0.0000       0.007773         0.2115 
  15   0.0000       0.007773         0.2115 
  16   0.0000       0.045284         1.2323 
  17   0.0000       0.093384         2.5411 
  18   0.0000       0.105269         2.8645 
  19   0.0000       0.124777         3.3953 
  20   0.0000       0.160755         4.3744 
  21   0.0000       0.160755         4.3744 
  22   0.0000       0.226847         6.1728 
  23   0.0000       0.244586         6.6555 
  24   0.0000       0.244586         6.6555 
  25   0.0000       0.254185         6.9167 
  26   0.0000       0.264089         7.1862 
  27   0.0000       0.349006         9.4969 
  28   0.0000       0.349006         9.4969 
  29   0.0000       0.353923         9.6307 
  30   0.0000       0.462061        12.5733 
  31   0.0000       0.539963        14.6931 
  32   0.0000       0.687715        18.7137 
  33   0.0000       0.687715        18.7137 
  34   0.0000       0.738660        20.1000 
  35   0.0000       0.938224        25.5304 
  36   0.0000       0.938224        25.5304 
  37   0.0000       1.092326        29.7237 
  38   0.0000       1.099008        29.9055 
  39   0.0000       1.205522        32.8039 
  40   0.0000       1.244636        33.8683 
  41   0.0000       1.244636        33.8683 
  42   0.0000       1.373480        37.3743 
  43   0.0000       2.536242        69.0147 
  44   0.0000       2.686535        73.1043 
  45   0.0000       2.719058        73.9893 
  46   0.0000       2.719058        73.9893 
  47   0.0000       2.812148        76.5224 
  48   0.0000       2.832283        77.0704 
  49   0.0000       2.851889        77.6038 
  50   0.0000       2.851889        77.6038 
  51   0.0000       2.889763        78.6345 
  52   0.0000       2.889763        78.6345 
  53   0.0000       3.103252        84.4438 
  54   0.0000       3.306331        89.9699 
  55   0.0000       3.342407        90.9515 
  56   0.0000       3.344700        91.0139 
  57   0.0000       3.749919       102.0405 
  58   0.0000       3.749919       102.0405 
  59   0.0000       3.884114       105.6921 
  60   0.0000       4.000395       108.8563 
  61   0.0000       4.006849       109.0319 
  62   0.0000       4.006849       109.0319 
  63   0.0000       4.051859       110.2567 
  64   0.0000       4.067811       110.6908 
  65   0.0000       4.067811       110.6908 
  66   0.0000       4.213468       114.6543 
  67   0.0000       5.214853       141.9034 
  68   0.0000      10.232975       278.4534 
  69   0.0000      10.234830       278.5039 
  70   0.0000      10.234830       278.5039 
  71   0.0000      10.251019       278.9444 
  72   0.0000      10.251077       278.9460 
  73   0.0000      10.257479       279.1202 
  74   0.0000      10.274627       279.5868 
  75   0.0000      10.274627       279.5868 
  76   0.0000      10.320883       280.8455 
  77   0.0000      10.761456       292.8341 
  78   0.0000      10.792972       293.6917 
  79   0.0000      10.799295       293.8638 
  80   0.0000      10.799295       293.8638 
  81   0.0000      10.912467       296.9433 
  82   0.0000      10.912467       296.9433 
  83   0.0000      11.219954       305.3105 

                    ********************************
                    * MULLIKEN POPULATION ANALYSIS *
                    ********************************

--------------------------------------------
MULLIKEN ATOMIC CHARGES AND SPIN POPULATIONS
--------------------------------------------
   0 Co:    0.027237    2.071931
   1 H :   -0.027237   -0.071931
Sum of atomic charges         :   -0.0000000
Sum of atomic spin populations:    2.0000000

-----------------------------------------------------
MULLIKEN REDUCED ORBITAL CHARGES AND SPIN POPULATIONS
-----------------------------------------------------
CHARGE
  0 Cos       :     6.840406  s :     6.840406
      pz      :     4.125075  p :    12.128635
      px      :     4.001780
      py      :     4.001780
      dz2     :     1.012327  d :     8.002949
      dxz     :     1.995366
      dyz     :     1.995366
      dx2y2   :     1.999925
      dxy     :     0.999965
      f0      :     0.000486  f :     0.000748
      f+1     :     0.000060
      f-1     :     0.000060
      f+2     :     0.000051
      f-2     :     0.000025
      f+3     :     0.000034
      f-3     :     0.000034
      g0      :     0.000010  g :     0.000025
      g+1     :     0.000000
      g-1     :     0.000000
      g+2     :     0.000001
      g-2     :     0.000003
      g+3     :     0.000002
      g-3     :     0.000002
      g+4     :     0.000008
      g-4     :     0.000000
  1 H s       :     1.031883  s :     1.031883
      pz      :    -0.010988  p :    -0.006528
      px      :     0.002230
      py      :     0.002230
      dz2     :     0.000794  d :     0.001882
      dxz     :     0.000529
      dyz     :     0.000529
      dx2y2   :     0.000022
      dxy     :     0.000008

SPIN
  0 Cos       :     0.234029  s :     0.234029
      pz      :    -0.003956  p :    -0.005571
      px      :    -0.000808
      py      :    -0.000808
      dz2     :     0.840881  d :     1.843574
      dxz     :     0.001361
      dyz     :     0.001361
      dx2y2   :     0.000006
      dxy     :     0.999965
      f0      :    -0.000041  f :    -0.000102
      f+1     :    -0.000017
      f-1     :    -0.000017
      f+2     :    -0.000001
      f-2     :     0.000025
      f+3     :    -0.000026
      f-3     :    -0.000026
      g0      :     0.000001  g :     0.000001
      g+1     :     0.000000
      g-1     :     0.000000
      g+2     :    -0.000000
      g-2     :     0.000003
      g+3     :    -0.000000
      g-3     :    -0.000000
      g+4     :    -0.000001
      g-4     :    -0.000000
  1 H s       :    -0.067963  s :    -0.067963
      pz      :    -0.003349  p :    -0.004341
      px      :    -0.000496
      py      :    -0.000496
      dz2     :     0.000399  d :     0.000373
      dxz     :    -0.000014
      dyz     :    -0.000014
      dx2y2   :    -0.000005
      dxy     :     0.000008


                     *******************************
                     * LOEWDIN POPULATION ANALYSIS *
                     *******************************

-------------------------------------------
LOEWDIN ATOMIC CHARGES AND SPIN POPULATIONS
-------------------------------------------
   0 Co:    0.234832    1.992536
   1 H :   -0.234832    0.007464

----------------------------------------------------
LOEWDIN REDUCED ORBITAL CHARGES AND SPIN POPULATIONS
----------------------------------------------------
CHARGE
  0 Cos       :     6.653413  s :     6.653413
      pz      :     4.134423  p :    12.138557
      px      :     4.002067
      py      :     4.002067
      dz2     :     1.033357  d :     7.971562
      dxz     :     1.969397
      dyz     :     1.969397
      dx2y2   :     1.999587
      dxy     :     0.999825
      f0      :     0.001110  f :     0.001607
      f+1     :     0.000175
      f-1     :     0.000175
      f+2     :     0.000053
      f-2     :     0.000026
      f+3     :     0.000034
      f-3     :     0.000034
      g0      :     0.000013  g :     0.000029
      g+1     :     0.000000
      g-1     :     0.000000
      g+2     :     0.000001
      g-2     :     0.000003
      g+3     :     0.000002
      g-3     :     0.000002
      g+4     :     0.000008
      g-4     :     0.000000
  1 H s       :     1.089584  s :     1.089584
      pz      :     0.080683  p :     0.127519
      px      :     0.023418
      py      :     0.023418
      dz2     :     0.007409  d :     0.017729
      dxz     :     0.004907
      dyz     :     0.004907
      dx2y2   :     0.000358
      dxy     :     0.000147

SPIN
  0 Cos       :     0.176072  s :     0.176072
      pz      :    -0.015334  p :    -0.017954
      px      :    -0.001310
      py      :    -0.001310
      dz2     :     0.828056  d :     1.834601
      dxz     :     0.003344
      dyz     :     0.003344
      dx2y2   :     0.000032
      dxy     :     0.999825
      f0      :    -0.000109  f :    -0.000180
      f+1     :    -0.000022
      f-1     :    -0.000022
      f+2     :    -0.000001
      f-2     :     0.000026
      f+3     :    -0.000026
      f-3     :    -0.000026
      g0      :    -0.000003  g :    -0.000004
      g+1     :    -0.000000
      g-1     :    -0.000000
      g+2     :    -0.000000
      g-2     :     0.000003
      g+3     :    -0.000000
      g-3     :    -0.000000
      g+4     :    -0.000001
      g-4     :    -0.000000
  1 H s       :    -0.010533  s :    -0.010533
      pz      :     0.019481  p :     0.015726
      px      :    -0.001878
      py      :    -0.001878
      dz2     :     0.002372  d :     0.002271
      dxz     :    -0.000108
      dyz     :    -0.000108
      dx2y2   :    -0.000031
      dxy     :     0.000147


                      *****************************
                      * MAYER POPULATION ANALYSIS *
                      *****************************

  NA   - Mulliken gross atomic population
  ZA   - Total nuclear charge
  QA   - Mulliken gross atomic charge
  VA   - Mayer's total valence
  BVA  - Mayer's bonded valence
  FA   - Mayer's free valence

  ATOM       NA         ZA         QA         VA         BVA        FA
  0 Co    26.9728    27.0000     0.0272     2.9921     0.9801     2.0120
  1 H      1.0272     1.0000    -0.0272     0.9847     0.9801     0.0046

  Mayer bond orders larger than 0.100000
B(  0-Co,  1-H ) :   0.9801 

-------
TIMINGS
-------

Total SCF time: 0 days 0 hours 0 min 3 sec 

Total time                  ....       3.301 sec
Sum of individual times     ....       3.083 sec  ( 93.4%)

Fock matrix formation       ....       2.814 sec  ( 85.2%)
  XC integration            ....       0.254 sec  (  9.0% of F)
    Basis function eval.    ....       0.018 sec  (  7.1% of XC)
    Density eval.           ....       0.036 sec  ( 14.1% of XC)
    XC-Functional eval.     ....       0.017 sec  (  6.5% of XC)
    XC-Potential eval.      ....       0.081 sec  ( 31.8% of XC)
Diagonalization             ....       0.033 sec  (  1.0%)
Density matrix formation    ....       0.007 sec  (  0.2%)
Population analysis         ....       0.004 sec  (  0.1%)
Initial guess               ....       0.084 sec  (  2.5%)
Orbital Transformation      ....       0.000 sec  (  0.0%)
Orbital Orthonormalization  ....       0.000 sec  (  0.0%)
DIIS solution               ....       0.015 sec  (  0.4%)
Grid generation             ....       0.126 sec  (  3.8%)

-------------------------   --------------------
FINAL SINGLE POINT ENERGY     -1383.229716475380
-------------------------   --------------------


                            ***************************************
                            *     ORCA property calculations      *
                            ***************************************

                                    ---------------------
                                    Active property flags
                                    ---------------------
   (+) Dipole Moment


------------------------------------------------------------------------------
                       ORCA ELECTRIC PROPERTIES CALCULATION
------------------------------------------------------------------------------

Dipole Moment Calculation                       ... on
Quadrupole Moment Calculation                   ... off
Polarizability Calculation                      ... off
GBWName                                         ... TMD21_CoH.gbw
Electron density file                           ... TMD21_CoH.scfp
The origin for moment calculation is the CENTER OF MASS  = ( 0.000000,  0.000000  0.053923)

-------------
DIPOLE MOMENT
-------------
                                X             Y             Z
Electronic contribution:     -0.00000      -0.00000       2.78474
Nuclear contribution   :      0.00000       0.00000      -1.50982
                        -----------------------------------------
Total Dipole Moment    :     -0.00000      -0.00000       1.27492
                        -----------------------------------------
Magnitude (a.u.)       :      1.27492
Magnitude (Debye)      :      3.24060



--------------------
Rotational spectrum 
--------------------
 
Rotational constants in cm-1:     0.000000     7.460162     7.460162 
Rotational constants in MHz :     0.000000 223650.041735 223650.041735 

 Dipole components along the rotational axes: 
x,y,z [a.u.] :     1.274923    -0.000000    -0.000000 
x,y,z [Debye]:     3.240598    -0.000000    -0.000000 

 

Timings for individual modules:

Sum of individual times         ...        4.335 sec (=   0.072 min)
GTO integral calculation        ...        0.666 sec (=   0.011 min)  15.4 %
SCF iterations                  ...        3.669 sec (=   0.061 min)  84.6 %
                             ****ORCA TERMINATED NORMALLY****
TOTAL RUN TIME: 0 days 0 hours 0 minutes 4 seconds 796 msec
